4.424977718913696734e+00 0.000000000000000000e+00 0.000000000000000000e+00 0.000000000000000000e+00 5.578055390140838732e+00 0.000000000000000000e+00 0.000000000000000000e+00 0.000000000000000000e+00 9.227971061560667820e+00
