-1.069644745219515025e+00 -1.607425202561601596e+00 3.050071120016712101e+00 -1.827363491184936573e+00 -1.512906342080310163e+00 4.465027538292505760e+00 1.992379837098263495e+00 2.115795212934006297e+00 3.397371097065501111e+00 -1.033099687674063238e+00 2.038478072618447268e+00 -3.793772337387304461e+00 3.670769074179687230e-01 2.137882212440290530e+00 3.485939116391291392e+00 -1.142844114237333564e+00 1.607425202561601596e+00 -1.563914410763620921e+00 -3.851253693302666981e-01 1.512906342080310163e+00 -1.489579919586510592e-01 1.845411953097234381e+00 -2.137882212440290530e+00 -1.128046414389041852e+00 -1.179389171782785573e+00 -2.038478072618447268e+00 8.202131933930284502e-01 2.201090207710537372e-01 -2.115795212934006297e+00 -1.216614433714832577e+00 3.851253693302666981e-01 -1.276121352990108759e+00 -4.465027538292505760e+00 1.142844114237333564e+00 -1.181602492508817326e+00 -3.050071120016712101e+00 -2.201090207710537372e-01 6.732324821364129575e-01 -3.397371097065501111e+00 1.179389171782785573e+00 7.505496224519715431e-01 3.793772337387304461e+00 -1.845411953097234381e+00 6.511454826301282806e-01 -3.485939116391291392e+00 1.069644745219515025e+00 1.181602492508817326e+00 1.563914410763620921e+00 1.827363491184936573e+00 1.276121352990108759e+00 1.489579919586510592e-01 -1.992379837098263495e+00 -6.732324821364129575e-01 1.216614433714832577e+00 -3.670769074179687230e-01 -6.511454826301282806e-01 1.128046414389041852e+00 1.033099687674063238e+00 -7.505496224519715431e-01 -8.202131933930284502e-01 -1.157510546386746331e+00 -1.219610052986714210e+00 1.426034457425475521e+00 -1.054978313070102258e+00 1.219610052986714210e+00 -3.187951073354857723e+00 1.054978313070102258e+00 -1.569417642083704711e+00 -1.426034457425475521e+00 1.157510546386746331e+00 1.569417642083704711e+00 3.187951073354857723e+00 -1.020430507903793860e+00 -1.888467991167453564e+00 4.026376810637897208e+00 -1.192058351553054951e+00 1.888467991167453564e+00 -5.876087201424365913e-01 1.192058351553054951e+00 -9.005597039029655804e-01 -4.026376810637897208e+00 1.020430507903793860e+00 9.005597039029655804e-01 5.876087201424365913e-01
