9.195486661076393009e-01 -2.176519469546463981e+01 6.259020779115169120e+01 2.122066380151798981e+01 -2.035657905923071098e+01 2.839907205912934529e+01 -1.558467690082595780e+01 -9.503073514545699041e+00 -1.164322924715440344e+01 -1.842031110265793803e+00 2.361139175935215206e+01 1.568050007162227999e+01 1.365367893479717409e+01 -1.002582222656845090e+01 -1.131706714897421051e+01 9.042524369211841773e-01 1.367279118015450479e+01 6.388924747617266320e+01 -2.183817597837881408e+01 -1.860724322340752135e-01 2.009437958473107955e+01 -1.444274042388679824e+01 1.773110586850724602e+01 -1.874268504000098901e+01 9.728427432481301373e-01 -8.870428080455589281e+00 4.891066108835753212e+00 1.755161395522040380e+01 1.767462474420928231e+01 -1.850029951638596870e+01 1.486775234430917259e+01 -3.256795977257559649e+00 6.239833714650248453e+01 -2.758456374308378423e-01 -1.479142034808243977e+01 -4.495544502196094072e+01 -2.294881811658275694e+01 -1.950792643922654079e+01 4.780135242719691924e-01 -9.011271219552349221e-01 1.952170081691134840e+01 -3.278380600741971307e+01 2.075041701997687582e+01 -1.806846599596774539e+01 1.542170509791735755e+00 1.219705596527619340e+00 -2.847017180860932140e+00 -6.022810223002556285e+01 -1.458581234963670958e+01 -1.764733978404375492e+01 5.342043504324760761e+01 2.269246990767330630e+01 3.632169399861044923e+01 -1.659987361473829282e+01 -1.977804660898364020e+01 3.426916193109293118e+01 -1.451518912845230247e+01 2.752337611125282857e-01 -5.448711691910935073e+00 -2.897053361519938974e+01 -2.366614037136628657e+00 8.040198598687904052e+01 -1.554544767434275627e+02 -1.449420599402865051e+00 1.405430142022883544e+01 -8.547698250986326229e+01 -6.811544050680790718e+00 4.466891272816645397e+01 -7.863895624890601255e+01 3.785020805180159709e+00 1.038511700238172075e+00 -8.421596944344285873e+01 1.608999877716176474e+00 -9.443052392306290699e+01 2.520816043047418304e+02 2.673589770192011272e+00 -5.846623514498905827e+00 2.178944673069212854e+02 -1.303818121741393277e-01 -1.517060075714182403e+02 2.019681357647031916e+02 5.504756859924251344e+00 4.764228355917916957e+01 1.360840540428399663e+02
