3.771452330571618106e+00 0.000000000000000000e+00 0.000000000000000000e+00 0.000000000000000000e+00 9.828138453396467966e+00 0.000000000000000000e+00 0.000000000000000000e+00 0.000000000000000000e+00 1.001151317385552275e+01
