0.000000000000000000e+00 2.954223627853731049e+00 2.502878293463880688e+00 -1.885726165285809053e+00 1.959845598844503378e+00 -2.502878293463880688e+00 -1.885726165285809053e+00 1.279159544568589046e+00 5.815861225571687942e-01 0.000000000000000000e+00 3.634909682129645159e+00 -5.815861225571687942e-01 0.000000000000000000e+00 3.634909682129645159e+00 -4.424170464370592804e+00 -1.885726165285809053e+00 1.279159544568589046e+00 4.424170464370592804e+00 -1.885726165285809053e+00 -1.959845598844503378e+00 2.502878293463880688e+00 0.000000000000000000e+00 -2.954223627853731049e+00 -2.502878293463880688e+00 0.000000000000000000e+00 -3.634909682129645159e+00 5.815861225571687942e-01 -1.885726165285809053e+00 -1.279159544568589046e+00 -5.815861225571687942e-01 -1.885726165285809053e+00 -1.279159544568589046e+00 -4.424170464370592804e+00 0.000000000000000000e+00 -3.634909682129645159e+00 4.424170464370592804e+00 0.000000000000000000e+00 2.662166634745119609e+00 -2.502878293463880688e+00 -1.885726165285809053e+00 2.251902591953114818e+00 2.502878293463880688e+00 -1.885726165285809053e+00 5.116536740294842511e-01 -1.227293277452101927e+00 0.000000000000000000e+00 4.402415550022864110e+00 1.227293277452101927e+00 0.000000000000000000e+00 4.402415550022864110e+00 3.778463309475659226e+00 -1.885726165285809053e+00 5.116536740294842511e-01 -3.778463309475659226e+00 0.000000000000000000e+00 1.795695886449090617e+00 4.327361234961395020e+00 -1.885726165285809053e+00 3.118373340249143588e+00 -4.327361234961395020e+00 -1.885726165285809053e+00 3.118373340249143588e+00 -6.783953519663656895e-01 0.000000000000000000e+00 1.795695886449090617e+00 6.783953519663656895e-01 -1.885726165285809053e+00 -2.251902591953114818e+00 -2.502878293463880688e+00 0.000000000000000000e+00 -2.662166634745119609e+00 2.502878293463880688e+00 0.000000000000000000e+00 -4.402415550022864110e+00 -1.227293277452101927e+00 -1.885726165285809053e+00 -5.116536740294842511e-01 1.227293277452101927e+00 -1.885726165285809053e+00 -5.116536740294842511e-01 3.778463309475659226e+00 0.000000000000000000e+00 -4.402415550022864110e+00 -3.778463309475659226e+00 -1.885726165285809053e+00 -3.118373340249143588e+00 4.327361234961395020e+00 0.000000000000000000e+00 -1.795695886449090617e+00 -4.327361234961395020e+00 0.000000000000000000e+00 -1.795695886449090617e+00 -6.783953519663656895e-01 -1.885726165285809053e+00 -3.118373340249143588e+00 6.783953519663656895e-01
