-1.919319119852513241e-05 -1.658010275554589157e+02 3.227004299308558304e-03 6.618274263008583133e-06 1.657991033417090421e+02 -2.667593381244135874e-03 4.059953082827202998e-06 2.065365755618328762e+02 -1.307413136152401592e+02 -3.932545084896562035e-06 -2.065370476164086142e+02 1.307475680812582937e+02 -1.716414271486475400e-05 -2.065392613363961516e+02 -1.307500404542431625e+02 2.608618852335866783e-05 2.065384519530603882e+02 1.307429694057999257e+02 -1.960400085824257857e-05 -1.658123563510557688e+02 5.681110278769352937e-04 -2.018536964686526735e-07 1.658128983396427429e+02 4.034810669366137715e-04 1.688145566040185589e-05 2.065397195070137570e+02 -1.307360366827171276e+02 -1.589077513687556608e-05 -2.065394063466252703e+02 1.307407520862677472e+02 3.373359261788544573e-06 -2.065373021556406457e+02 -1.307414920498129050e+02 5.369407654473581861e-06 2.065379577869958041e+02 1.307354355587530392e+02 -8.516860694472918475e-07 1.654142847601054100e+01 -1.338645038213779215e-03 8.360009557363895779e-06 -1.654224896651276211e+01 1.599833513737098810e-03 -2.720677702630828909e-06 6.906874186698016160e+01 6.171953552211788718e+01 -4.475688076684082476e-07 -6.906887350747186360e+01 -6.171701378394862303e+01 -1.247492446352194180e-05 -6.906989886348931407e+01 6.171833018886567856e+01 1.403633485852589460e-05 6.906967414905619762e+01 -6.172095837071379520e+01 -1.552024160550485971e-05 1.557879503910587005e+02 6.287269491661781728e+01 1.095942379284499029e-05 -1.557887165798580895e+02 -6.287628263423750496e+01 -5.662386270018423547e-06 -1.557880408938967207e+02 6.287484333058011998e+01 3.805253187708956337e-06 1.557873358973571385e+02 -6.287164025002213208e+01 2.166641994944038771e-06 1.654712244149754952e+01 1.291995350341592643e-04 8.420694589911285766e-06 -1.654712177301067300e+01 2.620124107898110736e-04 2.096205708400061969e-07 6.907408873351441514e+01 6.172385497575201896e+01 -6.275246292471149658e-06 -6.907312714086016570e+01 -6.172164022732317079e+01 -4.295478748428470119e-06 -6.907225347994059916e+01 6.172244858221758079e+01 4.024868068715764011e-06 6.907306594860034465e+01 -6.172450495067982956e+01 -5.507615001256308039e-06 1.557867913376668412e+02 6.287066014542372727e+01 6.374461108545412636e-07 -1.557864864048090965e+02 -6.287356086422732915e+01 4.340109842488875845e-07 -1.557872916743794462e+02 6.287321993592262004e+01 -3.031499965711688398e-06 1.557872587642565350e+02 -6.287097022048817507e+01
