3.685651537633584329e+00 0.000000000000000000e+00 0.000000000000000000e+00 0.000000000000000000e+00 4.829731608747702687e+00 0.000000000000000000e+00 0.000000000000000000e+00 0.000000000000000000e+00 5.610423572585889751e+00
