-1.842825768816792165e+00 -2.359719929743604450e+00 -2.805211786292944875e+00 0.000000000000000000e+00 5.514587568860152694e-02 0.000000000000000000e+00 0.000000000000000000e+00 5.608815614713548170e-01 -2.805211786292944875e+00 -1.842825768816792165e+00 -1.853984242902496637e+00 0.000000000000000000e+00 0.000000000000000000e+00 -6.160274361016019329e-01 -2.805211786292944875e+00 -1.842825768816792165e+00 1.798838368272249522e+00 0.000000000000000000e+00
