3.983457903812824496e-07 -2.489950374089941931e+01 2.383751325448295842e-04 2.010590044174847248e-06 -2.489938130495771773e+01 -2.754006781706889030e-04 7.256070439869138914e-07 -1.498926484852973999e+02 -7.541357136932917368e-05 -2.619959423586102953e-06 -1.498938461052395326e+02 -3.123978501283787286e-04 9.705965656518963371e-06 2.191327831871562921e+02 8.671446946637705478e-04 -3.642118556824970500e-06 2.191345022268585012e+02 5.841869955774533704e-04
