5.047355736635740442e+00 0.000000000000000000e+00 0.000000000000000000e+00 0.000000000000000000e+00 5.493140969030676501e+00 0.000000000000000000e+00 0.000000000000000000e+00 0.000000000000000000e+00 5.954612601481503731e+00
