-2.523677868317870221e+00 -1.373285242257669125e+00 1.064048304625544006e+00 0.000000000000000000e+00 1.373285242257669125e+00 1.913257996115207638e+00 -2.523677868317870221e+00 1.373285242257669125e+00 -1.064048304625544006e+00 0.000000000000000000e+00 -1.373285242257669125e+00 -1.913257996115207638e+00 1.347310197864340475e+00 2.349802122211860134e+00 5.687696516020813720e-01 -1.176367670453529746e+00 -2.349802122211860134e+00 2.408536649138670604e+00 1.176367670453529746e+00 -3.967683638910100563e-01 2.408536649138670604e+00 -1.347310197864340475e+00 3.967683638910100563e-01 5.687696516020813720e-01 1.347310197864340475e+00 -3.967683638910100563e-01 -5.687696516020813720e-01 -1.176367670453529746e+00 3.967683638910100563e-01 -2.408536649138670604e+00 1.176367670453529746e+00 2.349802122211860134e+00 -2.408536649138670604e+00 -1.347310197864340475e+00 -2.349802122211860134e+00 -5.687696516020813720e-01
