3.056125839366797692e+01 1.053649785999550801e+02 8.088528399757569787e+02 -1.994435503555841294e+01 -1.029496095475339388e+02 -5.579630474906720110e+02 1.618282111038990223e+01 -1.033460747131089477e+02 -6.651649138577578242e+02 -1.694317129401752808e+01 1.007109436868581440e+02 4.753343183635887499e+02 -2.018499992220300854e+00 1.513388822946531320e+01 2.953849024317773342e+02 -1.176245172103993930e+01 3.534223479856085532e+02 -2.380048288700986348e+02 9.391901062416323498e+00 -3.119511749138515597e+02 -2.339822302011846205e+02 8.442925892169002466e+00 -6.362037845672951164e+01 2.972508719489413238e+02 -1.194698088859519736e+01 -3.288243677165615964e+02 -2.187832848807631763e+02 -1.042216521331208590e+01 -8.308038456880649392e+01 1.511570307255524597e+02 8.429719985435689011e+00 4.241058831409274177e+01 1.491845763918934438e+02 1.539598141455230618e+01 3.753673537711303538e+02 -2.137704838621245358e+02
