3.016681583220890417e+00 0.000000000000000000e+00 0.000000000000000000e+00 0.000000000000000000e+00 8.782997587006899920e+00 0.000000000000000000e+00 0.000000000000000000e+00 0.000000000000000000e+00 1.053815615486362312e+01
