0.000000000000000000e+00 -5.129534078728765767e-01 -1.386104755981717895e+00 0.000000000000000000e+00 3.878545383513863687e+00 1.386104755981717895e+00 0.000000000000000000e+00 3.713064928019690569e+00 -3.750382240327533978e+00 0.000000000000000000e+00 -6.784338654837582805e-01 3.750382240327533978e+00 -1.508340791610445208e+00 5.200939849216966726e-01 -3.813379337312240214e+00 -1.508340791610445208e+00 -3.871404809110929435e+00 3.813379337312240214e+00 -1.508340791610445208e+00 -3.710465159760250486e+00 -1.571281234882976996e+00 -1.508340791610445208e+00 6.810336337431983633e-01 1.571281234882976996e+00 0.000000000000000000e+00 1.826301384897172753e+00 -4.114138316268676654e+00 -1.508340791610445208e+00 -1.822955064012463655e+00 -1.211150287423528926e+00 -1.508340791610445208e+00 2.568543729490985861e+00 1.211150287423528926e+00 0.000000000000000000e+00 -2.565197408606276763e+00 4.114138316268676654e+00 0.000000000000000000e+00 9.834322418280357914e-01 2.846429743197218087e+00 -1.508340791610445208e+00 -9.717596350397605942e-01 2.433460483003003105e+00 -1.508340791610445208e+00 3.419739158463688700e+00 -2.433460483003003105e+00 0.000000000000000000e+00 -3.408066551675413169e+00 -2.846429743197218087e+00 -1.508340791610445208e+00 4.166241252600864087e+00 -4.916397606425181976e+00 0.000000000000000000e+00 -4.190113442010887645e+00 -3.459782045621036528e-01 0.000000000000000000e+00 2.013853514925609267e-01 3.459782045621036528e-01 -1.508340791610445208e+00 -2.252575393150532679e-01 4.916397606425181976e+00 0.000000000000000000e+00 3.743348702599001765e+00 3.378290485587335024e+00 -1.508340791610445208e+00 -3.744227004474411480e+00 1.877024761532915420e+00 -1.508340791610445208e+00 6.472717890290375919e-01 -1.877024761532915420e+00 0.000000000000000000e+00 -6.481500909044471959e-01 -3.378290485587335024e+00
