-7.078527217236099123e-01 -2.663654312066754528e+02 -2.090653693529212376e+02 -7.641030535001337443e-01 -1.100543348167038573e+02 1.926098990840934846e+02 1.389438120846862246e+00 4.089866780199162690e+02 4.826814616551200743e+02 1.477080339019841482e+00 2.261990771460577321e+02 -4.637081417537391417e+02 -7.138550293514056566e-02 1.376806444336554591e+02 1.753011135507518077e+02 4.436571171421987980e-02 2.769608031168601769e+02 -1.149940882179617887e+02 -8.407693548693191687e-02 -2.703915944532790263e+02 -6.504642241989032527e+02 1.494986783184167889e-01 -4.059667340684891883e+02 6.033782252298078674e+02 -4.558814959142818979e-01 2.009630019893625956e+02 2.748047025839596103e+01 -8.656187293967557705e-01 -2.204458055606557707e+02 -4.804879032316808463e+01 -7.755506700673959752e-01 -1.934085784023422718e+02 2.993563088902581271e+01 -5.809084171405927144e-01 1.935639460642382801e+02 -4.048455735978874870e+00 -3.622443347819530590e-01 -1.877322316581783070e+02 3.056375375231683833e+01 -1.171703523718029993e+00 1.119766593198352780e+02 4.676593033444132885e+01 -1.134798178716615924e+00 1.818182954237510955e+02 -4.940709229498466470e+01 -3.910708765820447019e-01 -1.402706340841054669e+02 -3.237004626371427918e+01 -4.374953712816775364e-01 4.422424533967019045e+01 2.273686453221606882e+02 -3.731442173747106517e-01 4.420277225579147284e+01 -2.666648423628566889e+02 -5.104778867828043687e-01 -2.973311700777793121e+01 2.334585622682908479e+02 -4.853037618471947590e-01 -4.402573862584312536e+01 -2.139002284222187029e+02 5.688973689844104009e-02 -1.337832415287823267e+02 -1.444924881207211165e+01 1.578843175081850736e-01 2.225706080524322488e+02 1.031863937682268357e+02 2.444899305723337579e-01 1.602362101325698234e+02 -9.756393375081079000e+01 -5.430515119301975759e-03 -2.161661968294069709e+02 3.849266599899679875e+01
