-9.965274515870715666e-01 -1.199310873394906274e+00 1.590436407430126042e+00 -6.782577500162752238e-02 -2.084395223697140587e+00 2.479710719385180173e+00 9.965274515870715666e-01 1.264128900912160569e+00 3.769802234317990219e+00 6.782577500162752238e-02 3.790445511391036804e-01 2.880527922362936533e+00 2.910755307818678750e-01 -1.264128900912160569e+00 -1.590436407430126042e+00 1.219777209484020686e+00 -3.790445511391036804e-01 -2.479710719385180173e+00 -2.910755307818678750e-01 1.199310873394906274e+00 -3.769802234317990219e+00 -1.219777209484020686e+00 2.084395223697140587e+00 -2.880527922362936533e+00 5.010500999294832392e-01 1.231808571962269561e+00 1.007724862531937139e-03 -5.010500999294832392e-01 -1.231631202344797282e+00 5.359230929585837799e+00 -7.865528872020510764e-01 1.231631202344797282e+00 -1.007724862531937139e-03 7.865528872020510764e-01 -1.231808571962269561e+00 -5.359230929585837799e+00 -7.034690170661275777e-02 -1.236617205275627907e+00 1.957719957490507090e+00 7.034690170661275777e-02 1.226822569031438936e+00 3.402518684257609394e+00 1.217256082249858373e+00 -1.226822569031438936e+00 -1.957719957490507090e+00 -1.217256082249858373e+00 1.236617205275627907e+00 -3.402518684257609394e+00
