3.163063673988290603e+01 -3.055221304638155444e-01 4.334150307736471319e+01 1.695689162710983577e+00 1.222494462050916120e+01 7.417477983497373639e-01 -3.169788333103295841e+01 -3.140005206644049252e-01 -3.354660547552409611e+01 -1.776067869928098952e+00 1.139017390173204980e+01 1.151777868677117311e+01 3.163463094894281014e+01 3.350998458197110841e-01 -4.354242775962969603e+01 1.696908040535644702e+00 -1.218692067585608463e+01 -8.143494218583020583e-01 -3.169826560267957305e+01 2.654404649481225120e-01 3.374416221808405680e+01 -1.777340776918633569e+00 -1.142650143239238147e+01 -1.149563094537244901e+01 6.864829756308763464e-01 -9.747789229130138233e-02 7.835408725329307877e+00 -7.073239074702435403e-01 5.903342363012945015e-02 -7.602953059976440109e+00 6.502853371119694526e-01 5.388202985631539849e-03 -9.090329716619429234e+00 -6.810278347921854269e-01 1.649500129142258131e-01 9.017648635732824047e+00 1.081978912374651536e+01 -3.406245817981993884e+00 1.727094624533146430e+02 -1.034998940565654024e+01 -3.737077384380274037e+00 -1.057807949178110221e+02 1.081232886167761542e+01 3.587762398026738353e+00 -1.736116327953134544e+02 -1.035238629104695107e+01 3.449560296294852613e+00 1.065262961053961561e+02
