2.544587776620284902e+00 0.000000000000000000e+00 0.000000000000000000e+00 0.000000000000000000e+00 4.925811139825791329e+00 0.000000000000000000e+00 0.000000000000000000e+00 0.000000000000000000e+00 7.158762752842037891e+00
