6.361469441550712256e-01 -2.282105741092608220e+00 -2.199952651336076315e+00 -6.361469441550712256e-01 2.282105741092608220e+00 2.199952651336076315e+00 -6.361469441550712256e-01 1.807998288202872506e-01 -1.379428725084942631e+00 6.361469441550712256e-01 -1.807998288202872506e-01 1.379428725084942631e+00 6.361469441550712256e-01 -1.076837978046683020e+00 -3.474213496630051523e+00 -6.361469441550712256e-01 1.076837978046683020e+00 3.474213496630051523e+00 -6.361469441550712256e-01 1.386067591866212423e+00 -1.051678803201449020e-01 6.361469441550712256e-01 -1.386067591866212423e+00 1.051678803201449020e-01 6.361469441550712256e-01 -2.160116153874434008e+00 -3.291381489734716226e+00 -6.361469441550712256e-01 2.160116153874434008e+00 3.291381489734716226e+00 -6.361469441550712256e-01 3.027894139217525149e-01 -2.879998888030113613e-01 6.361469441550712256e-01 -3.027894139217525149e-01 2.879998888030113613e-01
