4.077887408036297290e-02 8.775848603773496848e+00 -3.176426119778187029e+01 4.725540953471051714e-02 -8.064419780675148530e+00 3.152572718699062548e+01 2.851706379726155413e-02 7.659840624292545641e+00 3.165591680507532146e+01 2.812496097132463277e-02 -8.462887732918513706e+00 -3.145445645913763499e+01 3.510075738865034781e-03 -6.504050116886686794e+01 7.568889180130730310e+00 5.863639899246470173e-03 6.493081532869656769e+01 -8.255774250615086629e+00 -4.324936995410155489e-04 -6.477714356657261874e+01 -7.389396341246682987e+00 -1.723715618799292418e-04 6.496539204081720698e+01 8.063250134337502928e+00 8.471188025875120431e-02 -5.653212418986380072e+01 -5.642771271111319464e+01 1.173260959290093330e-01 5.930198874515620844e+01 5.375825951197377606e+01 5.762892191352757265e-02 -5.982032420969446918e+01 5.653125258582691259e+01 4.872214413950075318e-02 5.666478283849900777e+01 -5.391573033641310531e+01
