7.301994619276875653e+00 0.000000000000000000e+00 0.000000000000000000e+00 0.000000000000000000e+00 1.138269493670077814e+01 0.000000000000000000e+00 0.000000000000000000e+00 0.000000000000000000e+00 1.671623764652501265e+01
