3.036972581733021204e-01 -2.125399562345010374e+00 4.179059411631253163e+00 3.347300053052667757e+00 3.565947906005378698e+00 4.179059411631253163e+00 -3.036972581733021204e-01 2.125399562345010374e+00 -4.179059411631253163e+00 -3.347300053052667757e+00 -3.565947906005378698e+00 -4.179059411631253163e+00 -3.052277561439005638e+00 -2.518648906781077446e-01 6.276245134265980852e+00 -5.987197481994325221e-01 5.439482558621902442e+00 2.081873667829437391e+00 3.052277561439005638e+00 2.518648906781077446e-01 -2.081873667829437391e+00 5.987197481994325221e-01 -5.439482558621902442e+00 -6.276245134265980852e+00 3.052277561439005638e+00 2.518648906781077446e-01 -6.276245134265980852e+00 5.987197481994325221e-01 -5.439482558621902442e+00 -2.081873667829437391e+00 -3.052277561439005638e+00 -2.518648906781077446e-01 2.081873667829437391e+00 -5.987197481994325221e-01 5.439482558621902442e+00 6.276245134265980852e+00 5.402015594998881287e-01 -1.884564504889401970e+00 8.152960417090781675e+00 3.110795750138549920e+00 3.806782963460987101e+00 2.051583844754608088e-01 -5.402015594998881287e-01 1.884564504889401970e+00 -2.051583844754608088e-01 -3.110795750138549920e+00 -3.806782963460987101e+00 -8.152960417090781675e+00 -5.402015594998881287e-01 1.884564504889401970e+00 -8.152960417090781675e+00 -3.110795750138549920e+00 -3.806782963460987101e+00 -2.051583844754608088e-01 5.402015594998881287e-01 -1.884564504889401970e+00 2.051583844754608088e-01 3.110795750138549920e+00 3.806782963460987101e+00 8.152960417090781675e+00 1.821979091899280867e+00 -4.996354261500473903e+00 4.179059411631253163e+00 1.829018217739157182e+00 6.949932068499146132e-01 4.179059411631253163e+00 -1.821979091899280867e+00 4.996354261500473903e+00 -4.179059411631253163e+00 -1.829018217739157182e+00 -6.949932068499146132e-01 -4.179059411631253163e+00 -2.960243225004214551e+00 -2.832902349118456176e+00 4.179059411631253163e+00 -6.907540846342236085e-01 2.858445119231932452e+00 4.179059411631253163e+00 2.960243225004214551e+00 2.832902349118456176e+00 -4.179059411631253163e+00 6.907540846342236085e-01 -2.858445119231932452e+00 -4.179059411631253163e+00 2.884068816416237024e-01 5.489418471942217881e-01 5.663996256286536912e+00 3.362590427467637255e+00 -5.142405621156167506e+00 2.694122588143059271e+00 -2.884068816416237024e-01 -5.489418471942217881e-01 -2.694122588143059271e+00 -3.362590427467637255e+00 5.142405621156167506e+00 -5.663996256286536912e+00 -2.884068816416237024e-01 -5.489418471942217881e-01 -5.663996256286536912e+00 -3.362590427467637255e+00 5.142405621156167506e+00 -2.694122588143059271e+00 2.884068816416237024e-01 5.489418471942217881e-01 2.694122588143059271e+00 3.362590427467637255e+00 -5.142405621156167506e+00 5.663996256286536912e+00 2.720584459694888491e+00 -3.152186943786280615e+00 5.840034940156350274e+00 9.304128499435497801e-01 2.539160524564108901e+00 2.518083888397928405e+00 -2.720584459694888491e+00 3.152186943786280615e+00 -2.518083888397928405e+00 -9.304128499435497801e-01 -2.539160524564108901e+00 -5.840034940156350274e+00 -2.720584459694888491e+00 3.152186943786280615e+00 -5.840034940156350274e+00 -9.304128499435497801e-01 -2.539160524564108901e+00 -2.518083888397928405e+00 2.720584459694888491e+00 -3.152186943786280615e+00 2.518083888397928405e+00 9.304128499435497801e-01 2.539160524564108901e+00 5.840034940156350274e+00 -1.755063612298042752e+00 -2.948698504472442306e+00 5.921108698906912160e+00 -1.895933697340395296e+00 2.742648963877947210e+00 2.437010140230912114e+00 1.755063612298042752e+00 2.948698504472442306e+00 -2.437010140230912114e+00 1.895933697340395296e+00 -2.742648963877947210e+00 -5.921108698906912160e+00 1.755063612298042752e+00 2.948698504472442306e+00 -5.921108698906912160e+00 1.895933697340395296e+00 -2.742648963877947210e+00 -2.437010140230912114e+00 -1.755063612298042752e+00 -2.948698504472442306e+00 2.437010140230912114e+00 -1.895933697340395296e+00 2.742648963877947210e+00 5.921108698906912160e+00 1.825892960634205586e+00 -4.722509388940104635e+00 7.161771125284696282e+00 1.825104349004232462e+00 9.688380794102841032e-01 1.196347697977810487e+00 -1.825892960634205586e+00 4.722509388940104635e+00 -1.196347697977810487e+00 -1.825104349004232462e+00 -9.688380794102841032e-01 -7.161771125284696282e+00 -1.825892960634205586e+00 4.722509388940104635e+00 -7.161771125284696282e+00 -1.825104349004232462e+00 -9.688380794102841032e-01 -1.196347697977810487e+00 1.825892960634205586e+00 -4.722509388940104635e+00 1.196347697977810487e+00 1.825104349004232462e+00 9.688380794102841032e-01 7.161771125284696282e+00 8.733185554071599688e-01 -4.793594319285476857e+00 4.179059411631253163e+00 2.777678754231278191e+00 8.977531490649118817e-01 4.179059411631253163e+00 -8.733185554071599688e-01 4.793594319285476857e+00 -4.179059411631253163e+00 -2.777678754231278191e+00 -8.977531490649118817e-01 -4.179059411631253163e+00 -2.328890864507558334e+00 -2.093209305153501898e+00 4.179059411631253163e+00 -1.322106445130879715e+00 3.598138163196886730e+00 4.179059411631253163e+00 2.328890864507558334e+00 2.093209305153501898e+00 -4.179059411631253163e+00 1.322106445130879715e+00 -3.598138163196886730e+00 -4.179059411631253163e+00 -2.410680504772257648e-01 -1.377647567511548488e-01 6.092868032509480614e+00 -3.409929260748743918e+00 5.553582690432145696e+00 2.265250796044799397e+00 2.410680504772257648e-01 1.377647567511548488e-01 -2.265250796044799397e+00 3.409929260748743918e+00 -5.553582690432145696e+00 -6.092868032509480614e+00 2.410680504772257648e-01 1.377647567511548488e-01 -6.092868032509480614e+00 3.409929260748743918e+00 -5.553582690432145696e+00 -2.265250796044799397e+00 -2.410680504772257648e-01 -1.377647567511548488e-01 2.265250796044799397e+00 -3.409929260748743918e+00 5.553582690432145696e+00 6.092868032509480614e+00 2.476062561111276761e+00 -2.398789130833319128e+00 6.401901120496510167e+00 1.174934748527161288e+00 3.292558337517069500e+00 1.956217708057768512e+00 -2.476062561111276761e+00 2.398789130833319128e+00 -1.956217708057768512e+00 -1.174934748527161288e+00 -3.292558337517069500e+00 -6.401901120496510167e+00 -2.476062561111276761e+00 2.398789130833319128e+00 -6.401901120496510167e+00 -1.174934748527161288e+00 -3.292558337517069500e+00 -1.956217708057768512e+00 2.476062561111276761e+00 -2.398789130833319128e+00 1.956217708057768512e+00 1.174934748527161288e+00 3.292558337517069500e+00 6.401901120496510167e+00 -1.157344241864749046e+00 -3.256042654598581887e+00 6.640408380320103277e+00 -2.493653067773688559e+00 2.435304813751806741e+00 1.717710432358860340e+00 1.157344241864749046e+00 3.256042654598581887e+00 -1.717710432358860340e+00 2.493653067773688559e+00 -2.435304813751806741e+00 -6.640408380320103277e+00 1.157344241864749046e+00 3.256042654598581887e+00 -6.640408380320103277e+00 2.493653067773688559e+00 -2.435304813751806741e+00 -1.717710432358860340e+00 -1.157344241864749046e+00 -3.256042654598581887e+00 1.717710432358860340e+00 -2.493653067773688559e+00 2.435304813751806741e+00 6.640408380320103277e+00 1.478456757496074081e+00 -5.051002582550161435e+00 8.009969749628565339e+00 2.172540552142363968e+00 6.403448858002278588e-01 3.481490815715994613e-01 -1.478456757496074081e+00 5.051002582550161435e+00 -3.481490815715994613e-01 -2.172540552142363968e+00 -6.403448858002278588e-01 -8.009969749628565339e+00 -1.478456757496074081e+00 5.051002582550161435e+00 -8.009969749628565339e+00 -2.172540552142363968e+00 -6.403448858002278588e-01 -3.481490815715994613e-01 1.478456757496074081e+00 -5.051002582550161435e+00 3.481490815715994613e-01 2.172540552142363968e+00 6.403448858002278588e-01 8.009969749628565339e+00
