-5.588798566667251180e+02 -6.593649366372747522e+01 1.511247695491121146e+00 5.588891229232116302e+02 -6.369157847924027749e+01 2.097375755829830268e+00 5.589052231724123203e+02 6.939437467782396141e+01 -7.218680220770672396e-01 -5.588764833791251476e+02 6.024281459763584934e+01 -1.278955315770037071e+00 3.000454993148534868e+02 -2.345932986788205099e+01 7.813924945660631920e+02 -3.000106140703304050e+02 -2.948099816104111781e+01 -7.800342475130142930e+02 -3.000270732455591656e+02 2.931290703424505040e+01 7.817289028710622460e+02 3.000500311416246291e+02 2.324565503266422795e+01 -7.829747618543161707e+02 -3.000189727273331073e+02 2.953080670649359973e+01 -7.826471930026471000e+02 3.000459142909347179e+02 2.346420781658667565e+01 7.800834224357563471e+02 3.000461323204991686e+02 -2.329530756356521692e+01 -7.804974780620356114e+02 -3.000257038759129955e+02 -2.928661112611760586e+01 7.829192054530503810e+02 -8.457142499630637644e+01 1.730367268863467132e+02 -7.844586587282582002e+01 8.449695710143311089e+01 1.756696251664452006e+02 7.821248630719385631e+01 8.455883995961090704e+01 -1.717173230343234707e+02 -7.726133438942525800e+01 -8.450648663890311241e+01 -1.805828159847358165e+02 7.747236849581061335e+01 8.456466093760357694e+01 -1.699295284288480161e+02 7.631701543592934911e+01 -8.453538532637752212e+01 -1.787453106385794683e+02 -7.850506604176440817e+01 -8.454662978978440435e+01 1.747994979713223529e+02 7.781389226804202508e+01 8.450707027936438465e+01 1.774637647407767815e+02 -7.875028142457460945e+01 -1.085715563727206074e+02 -3.543041557032670852e+01 2.520770616793365781e-01 1.085740642269317533e+02 -3.453039837312041982e+01 1.177025903063951690e-01 1.085729684226824219e+02 3.491320208386990487e+01 -1.688680047005343687e-01 -1.085755775783657242e+02 3.504841934029646922e+01 -3.571925064712886538e-02 1.105268887007062517e+02 1.334932416393168069e+02 1.822069788879159269e-01 -1.105315747936786295e+02 1.340429435363283233e+02 1.862378755357935456e-01 -1.105322941883969889e+02 -1.333600775117622561e+02 -1.020634983170820992e-01 1.105284745572547820e+02 -1.341805839548215715e+02 -1.010389959059577458e-01 -5.202778251356139094e+01 -1.171763137320387926e+02 1.532921238013915968e+02 5.202381015887998927e+01 -1.180410729775798728e+02 -1.530749941231754008e+02 5.202416702802548087e+01 1.177634503796588774e+02 1.532646027110940850e+02 -5.202919353508187328e+01 1.175267546049213507e+02 -1.534363385311601462e+02 5.202305785403870431e+01 1.177299489029607429e+02 -1.533483970262724085e+02 -5.202891482747833862e+01 1.174933096924970215e+02 1.531161842273422735e+02 -5.202791672515644450e+01 -1.172125436636158327e+02 -1.531364085263221568e+02 5.202503040453163408e+01 -1.180775775029950552e+02 1.534656871617214620e+02 -3.740406346158452777e+01 8.228928537746496374e+01 1.569471786179145738e+02 3.740517854910901008e+01 8.298611712122739448e+01 -1.566398320083426370e+02 3.740473277120955231e+01 -8.241611430635607860e+01 1.567505997688041361e+02 -3.740834244605188275e+01 -8.310881068748452094e+01 -1.569061324955354735e+02 3.740321000953731101e+01 -8.229330709733075366e+01 -1.569707468939161856e+02 -3.740644882843191255e+01 -8.298823262506678589e+01 1.567272716338557643e+02 -3.740460087360750663e+01 8.241437675470967861e+01 -1.566799684743552064e+02 3.740556735135815103e+01 8.310876749294817500e+01 1.568722098721080158e+02 8.827395060826854944e+01 4.205800242110429110e+01 1.421367002747555546e+02 -8.827630676738183979e+01 4.268165819800661609e+01 -1.418343184657595089e+02 -8.827786742711751344e+01 -4.212108547032757144e+01 1.419623830669224276e+02 8.827684361376208244e+01 -4.288065547835356739e+01 -1.421068929593559744e+02 -8.827575860814684461e+01 -4.199256881777304073e+01 -1.421684400314357788e+02 8.827597715193191164e+01 -4.275294157568811215e+01 1.419181929993624749e+02 8.827369092682984331e+01 4.218971788618524243e+01 -1.418911213379311675e+02 -8.827680556143245383e+01 4.281130047960937901e+01 1.420687454988977834e+02 -4.624191206300460522e+01 -2.824612277704776275e+01 1.548053991306938997e+02 4.623830922729720072e+01 -2.734457063113934439e+01 -1.546336494266697059e+02 4.624421500027847287e+01 2.764784523006390060e+01 1.546530993093194581e+02 -4.624037125218683286e+01 2.774380250961114669e+01 -1.548444757879041163e+02 4.624065155387444293e+01 2.774650710465092729e+01 -1.548764418016794195e+02 -4.624079502144157772e+01 2.784014648310278872e+01 1.547339409694064045e+02 -4.624225581952299535e+01 -2.814295946613122723e+01 -1.546889106652704982e+02 4.623914190482931019e+01 -2.724432793936635733e+01 1.546444377763416469e+02 -6.255604914043635745e+02 4.037045112446665485e+01 1.488211159658486604e+00 6.255854876711679253e+02 4.588015458155506821e+01 7.290167795480511082e-01 6.255886347016728450e+02 -4.322239306353986876e+01 -9.835725643233255155e-01 -6.255737017333947279e+02 -4.303370996998437903e+01 -2.344483033620738122e-01 5.039607835855675830e+02 6.033115256666072810e+02 9.191348521650751779e-01 -5.040005205021190591e+02 6.045545564361723336e+02 1.289268268431884357e+00 -5.039928894673654440e+02 -6.011275944825655415e+02 -4.377945032160345806e-01 5.039827675476827267e+02 -6.067502684157805106e+02 -7.747182753566500546e-01 -3.262005978818099834e+02 -6.080924357884557594e+02 8.420575085027408022e+02 3.261727806004060426e+02 -6.120866911282198544e+02 -8.410481138949224942e+02 3.261843243402432790e+02 6.117513524022159572e+02 8.421726116576772938e+02 -3.261961329037259816e+02 6.083387526319426115e+02 -8.429745027982354486e+02 3.261821707840743443e+02 6.118148380862244267e+02 -8.427021869576363997e+02 -3.262093756286593589e+02 6.084141168134450481e+02 8.411407713175815388e+02 -3.261965720481787798e+02 -6.080481768153259736e+02 -8.414055949630080704e+02 3.261813408319117116e+02 -6.120310113139930763e+02 8.430100251621695406e+02 -1.825085821668164385e+02 2.984155216043287169e+02 7.740532697586404538e+02 1.825273193396165823e+02 3.008842240820560505e+02 -7.727425418377738424e+02 1.825256193260790951e+02 -2.979591548728203065e+02 7.736228310617915440e+02 -1.825325715895473877e+02 -3.031813393494912248e+02 -7.742835017795470094e+02 1.825147003643567984e+02 -2.970448751482464331e+02 -7.746285798450544462e+02 -1.825171089739785373e+02 -3.022724887667589542e+02 7.729999915587819714e+02 -1.825110421985052369e+02 2.993291436406647108e+02 -7.731707693857385948e+02 1.825295063201292010e+02 3.017994638566221397e+02 7.739295174120223919e+02 1.935248884331928991e+02 2.102108020676227511e+02 4.108384643025401601e+02 -1.935316272950828420e+02 2.147069141563107735e+02 -4.094578928732920531e+02 -1.935369551354523026e+02 -2.115867748214124902e+02 4.100842223919939329e+02 1.935471526455735614e+02 -2.153317719754529662e+02 -4.108485754235886702e+02 -1.935234049065578859e+02 -2.106034820548404696e+02 -4.113209210482194749e+02 1.935364177748513725e+02 -2.143516622348328440e+02 4.098757532183141734e+02 1.935302003327215630e+02 2.112242065682313523e+02 -4.098871046396205315e+02 -1.935368420069047488e+02 2.156990175798550524e+02 4.101740572573913255e+02 3.521625865323007076e+01 -4.346183349110741290e+01 3.783184780275314552e+02 -3.523878028447848720e+01 -3.852637954029953704e+01 -3.779241309368991324e+02 -3.519832705853274035e+01 3.962079297697934521e+01 3.780835352310604662e+02 3.523747992324634026e+01 4.148089734459504285e+01 -3.790514178325719854e+02 -3.521752687567030193e+01 4.006143741148020609e+01 -3.788820597688873590e+02 3.523350618016912961e+01 4.190431703213256753e+01 3.784910191171678662e+02 3.521401670252775062e+01 -4.299649006077206081e+01 -3.784967218244063361e+02 -3.523689396879203883e+01 -3.806900529623091245e+01 3.775494419882883221e+02
