6.000708699125756773e+00 0.000000000000000000e+00 0.000000000000000000e+00 0.000000000000000000e+00 6.117258392244192322e+00 0.000000000000000000e+00 0.000000000000000000e+00 0.000000000000000000e+00 7.995130509369236194e+00
