-3.000354349562878387e+00 -1.529314598061048081e+00 2.956719190536845954e+00 0.000000000000000000e+00 -1.529314598061048081e+00 1.040846064147772365e+00 1.500177174781439193e+00 1.529314598061048081e+00 1.998782627342309048e+00 1.500177174781439193e+00 -1.529314598061048081e+00 -1.998782627342309048e+00 -3.000354349562878387e+00 0.000000000000000000e+00 0.000000000000000000e+00 0.000000000000000000e+00 0.000000000000000000e+00 -3.997565254684618097e+00 0.000000000000000000e+00 1.529314598061048081e+00 -1.040846064147772365e+00 -3.000354349562878387e+00 1.529314598061048081e+00 -2.956719190536845954e+00 -1.500177174781439193e+00 -1.529314598061048081e+00 -1.998782627342309048e+00 -1.500177174781439193e+00 1.529314598061048081e+00 1.998782627342309048e+00 0.000000000000000000e+00 -3.058629196122096161e+00 -3.997565254684618097e+00 -3.000354349562878387e+00 -3.058629196122096161e+00 0.000000000000000000e+00 0.000000000000000000e+00 -1.037762299827909296e-01 -2.116642843698285148e+00 1.381768191074453922e+00 1.529314598061048081e+00 3.908703377961970649e+00 1.381768191074453922e+00 -1.529314598061048081e+00 -3.908703377961970649e+00 1.618586158488424243e+00 1.529314598061048081e+00 8.886187831017922090e-02 -3.000354349562878387e+00 1.037762299827909296e-01 1.880922410986333171e+00 -1.381768191074453922e+00 1.529314598061048081e+00 3.908703377961970649e+00 0.000000000000000000e+00 1.037762299827909296e-01 2.116642843698285148e+00 0.000000000000000000e+00 2.954852967726836699e+00 2.116642843698285148e+00 -3.000354349562878387e+00 2.954852967726836699e+00 1.880922410986333171e+00 -1.618586158488424243e+00 -1.529314598061048081e+00 -8.886187831017922090e-02 -1.618586158488424243e+00 1.529314598061048081e+00 8.886187831017922090e-02 -1.381768191074453922e+00 -1.529314598061048081e+00 -3.908703377961970649e+00 0.000000000000000000e+00 -2.954852967726836699e+00 -2.116642843698285148e+00 1.618586158488424243e+00 -1.529314598061048081e+00 -8.886187831017922090e-02 -3.000354349562878387e+00 -2.954852967726836699e+00 -1.880922410986333171e+00 -3.000354349562878387e+00 -1.037762299827909296e-01 -1.880922410986333171e+00
