-5.524296782613427581e+01 -2.362725911801096572e+02 -2.943946789990052935e+02 3.289780667323811372e+02 -2.470070788078919577e+02 -1.913200037852601270e+02 6.653194063160723317e+02 2.405260708164166203e+02 -4.543920737392328419e+02 6.785208753249970641e+02 -2.422367755158186924e+02 4.698690586905392479e+02 -4.346925132997096739e+02 1.592380635877030954e+02 4.929156418808592548e+02 4.663363086894462839e+01 1.644374922570321758e+02 -5.612698566423557622e+02 4.290967855580823311e+02 2.572441885487922946e+02 9.304071657634784742e+02 -1.520864352227144707e+02 2.215855993314820580e+02 -4.295624046621192633e+02 -6.134274598206706059e+02 -2.374297527540898898e+02 1.875551715972874831e+02 -5.989184150635907145e+02 2.475246995056979529e+02 -1.554398307102837862e+02 4.475298996755780223e+01 -1.518588437249522372e+02 -5.303398226835240621e+02 -4.308937877988878995e+02 -1.674485432761795778e+02 5.268822080357350615e+02 1.071388954179688113e+02 1.642870528860444210e+02 1.532769393792055723e+02 4.334519055379452652e+02 7.755094038585697547e+01 -1.797879403567884538e+02 4.297978899613978001e+02 -7.751714477493520405e+01 -1.383848696422216733e+02 -1.994257860882930800e+01 9.501392784283413562e+01 1.363983272048466802e+02 -6.145432466852631848e+01 -3.219715869218990889e+01 -3.072918630682315211e+01 -4.497133480064100013e+02 7.689099111970273270e+01 -2.308774141280534309e+02 2.307365397757619263e+01 -4.262661123515933070e+01 -1.755016961220045175e+02 2.115470543599224840e+01 6.715030075835409207e+01 -1.917189948027697710e+02 -5.834528787212974521e+01 4.423983846444531309e+01 -5.032753788535501371e+01 -3.621573389288788292e+01 -9.511393039355390044e+01 2.252316203192616229e+02 -3.188397171850600031e+01 9.217420898052627365e+01 2.036569639741103970e+02 -4.422573133456447181e+02 -7.765949802587567774e+01 -2.169156235775924699e+02 1.114556154550242724e+02 -1.746599240831071427e+02 1.555340194821002626e+02 -2.391276991244304995e+01 -9.020871410942496027e+01 1.661133939872185294e+02 -1.456116241045421020e+02 -1.728829054860075587e+02 8.550088142975614858e+01 -1.479331118891078631e+02 1.458787951673305088e+02 7.972225310885974636e+01
