0.000000000000000000e+00 0.000000000000000000e+00 0.000000000000000000e+00 0.000000000000000000e+00 0.000000000000000000e+00 -3.098147123611143083e+00 0.000000000000000000e+00 0.000000000000000000e+00 3.368876798725335853e+00 0.000000000000000000e+00 0.000000000000000000e+00 -1.869948969004111339e+00 0.000000000000000000e+00 0.000000000000000000e+00 0.000000000000000000e+00 0.000000000000000000e+00 0.000000000000000000e+00 -1.443402000561943677e+00 0.000000000000000000e+00 0.000000000000000000e+00 1.443402000561943677e+00 0.000000000000000000e+00 0.000000000000000000e+00 1.869948969004111339e+00 0.000000000000000000e+00 0.000000000000000000e+00 3.368876798725335853e+00 0.000000000000000000e+00 0.000000000000000000e+00 3.098147123611143083e+00 0.000000000000000000e+00 0.000000000000000000e+00 2.952618379368707746e-01 0.000000000000000000e+00 0.000000000000000000e+00 -2.952618379368707746e-01 0.000000000000000000e+00 0.000000000000000000e+00 1.710183357504797108e+00 0.000000000000000000e+00 0.000000000000000000e+00 -1.710183357504797108e+00 0.000000000000000000e+00 0.000000000000000000e+00 -1.664043221733072286e+00 0.000000000000000000e+00 0.000000000000000000e+00 1.664043221733072286e+00 0.000000000000000000e+00 0.000000000000000000e+00 0.000000000000000000e+00 0.000000000000000000e+00 0.000000000000000000e+00 -3.098147123611143083e+00 0.000000000000000000e+00 0.000000000000000000e+00 3.368876798725335853e+00 0.000000000000000000e+00 0.000000000000000000e+00 -1.869948969004111339e+00 0.000000000000000000e+00 0.000000000000000000e+00 0.000000000000000000e+00 0.000000000000000000e+00 0.000000000000000000e+00 -1.443402000561943677e+00 0.000000000000000000e+00 0.000000000000000000e+00 1.443402000561943677e+00 0.000000000000000000e+00 0.000000000000000000e+00 1.869948969004111339e+00 0.000000000000000000e+00 0.000000000000000000e+00 3.368876798725335853e+00 0.000000000000000000e+00 0.000000000000000000e+00 3.098147123611143083e+00 0.000000000000000000e+00 0.000000000000000000e+00 2.952618379368707746e-01 0.000000000000000000e+00 0.000000000000000000e+00 -2.952618379368707746e-01 0.000000000000000000e+00 0.000000000000000000e+00 1.710183357504797108e+00 0.000000000000000000e+00 0.000000000000000000e+00 -1.710183357504797108e+00 0.000000000000000000e+00 0.000000000000000000e+00 -1.664043221733072286e+00 0.000000000000000000e+00 0.000000000000000000e+00 1.664043221733072286e+00 0.000000000000000000e+00 0.000000000000000000e+00 -1.916035202785157709e+00 0.000000000000000000e+00 0.000000000000000000e+00 -1.332357083961047017e+00 0.000000000000000000e+00 0.000000000000000000e+00 1.671751211691919314e+00 0.000000000000000000e+00 0.000000000000000000e+00 1.919720752720766588e-01 0.000000000000000000e+00 0.000000000000000000e+00 3.273941851495066224e+00 0.000000000000000000e+00 0.000000000000000000e+00 -3.273941851495066224e+00 0.000000000000000000e+00 0.000000000000000000e+00 -1.702643809943878317e+00 0.000000000000000000e+00 0.000000000000000000e+00 -3.192381344962587075e+00 0.000000000000000000e+00 0.000000000000000000e+00 1.859350480826282292e-01 0.000000000000000000e+00 0.000000000000000000e+00 1.332357083961047017e+00 0.000000000000000000e+00 0.000000000000000000e+00 -9.777828041364160228e-02 0.000000000000000000e+00 0.000000000000000000e+00 9.777828041364160228e-02 0.000000000000000000e+00 0.000000000000000000e+00 3.192381344962587075e+00 0.000000000000000000e+00 0.000000000000000000e+00 3.258856019947337312e+00 0.000000000000000000e+00 0.000000000000000000e+00 -1.979895631221983532e+00 0.000000000000000000e+00 0.000000000000000000e+00 -1.671751211691919314e+00 0.000000000000000000e+00 0.000000000000000000e+00 -1.919720752720766588e-01 0.000000000000000000e+00 0.000000000000000000e+00 1.979895631221983532e+00 0.000000000000000000e+00 0.000000000000000000e+00 -3.258856019947337312e+00 0.000000000000000000e+00 0.000000000000000000e+00 1.448172332028793807e+00 0.000000000000000000e+00 0.000000000000000000e+00 -1.859350480826282292e-01 0.000000000000000000e+00 0.000000000000000000e+00 1.916035202785157709e+00 0.000000000000000000e+00 0.000000000000000000e+00 -1.448172332028793807e+00 0.000000000000000000e+00 0.000000000000000000e+00 1.702643809943878317e+00 0.000000000000000000e+00 0.000000000000000000e+00 -1.916035202785157709e+00 0.000000000000000000e+00 0.000000000000000000e+00 -1.332357083961047017e+00 0.000000000000000000e+00 0.000000000000000000e+00 1.671751211691919314e+00 0.000000000000000000e+00 0.000000000000000000e+00 1.919720752720766588e-01 0.000000000000000000e+00 0.000000000000000000e+00 3.273941851495066224e+00 0.000000000000000000e+00 0.000000000000000000e+00 -3.273941851495066224e+00 0.000000000000000000e+00 0.000000000000000000e+00 -1.702643809943878317e+00 0.000000000000000000e+00 0.000000000000000000e+00 -3.192381344962587075e+00 0.000000000000000000e+00 0.000000000000000000e+00 1.859350480826282292e-01 0.000000000000000000e+00 0.000000000000000000e+00 1.332357083961047017e+00 0.000000000000000000e+00 0.000000000000000000e+00 -9.777828041364160228e-02 0.000000000000000000e+00 0.000000000000000000e+00 9.777828041364160228e-02 0.000000000000000000e+00 0.000000000000000000e+00 3.192381344962587075e+00 0.000000000000000000e+00 0.000000000000000000e+00 3.258856019947337312e+00 0.000000000000000000e+00 0.000000000000000000e+00 -1.979895631221983532e+00 0.000000000000000000e+00 0.000000000000000000e+00 -1.671751211691919314e+00 0.000000000000000000e+00 0.000000000000000000e+00 -1.919720752720766588e-01 0.000000000000000000e+00 0.000000000000000000e+00 1.979895631221983532e+00 0.000000000000000000e+00 0.000000000000000000e+00 -3.258856019947337312e+00 0.000000000000000000e+00 0.000000000000000000e+00 1.448172332028793807e+00 0.000000000000000000e+00 0.000000000000000000e+00 -1.859350480826282292e-01 0.000000000000000000e+00 0.000000000000000000e+00 1.916035202785157709e+00 0.000000000000000000e+00 0.000000000000000000e+00 -1.448172332028793807e+00 0.000000000000000000e+00 0.000000000000000000e+00 1.702643809943878317e+00
