7.328333356583553559e+00 0.000000000000000000e+00 0.000000000000000000e+00 0.000000000000000000e+00 7.696785689765597738e+00 0.000000000000000000e+00 0.000000000000000000e+00 0.000000000000000000e+00 7.740012588573597974e+00
