1.243288394200925628e+00 1.943930980532966757e+00 2.420688939193101685e+00 2.420878284090851373e+00 -1.943930980532966757e+00 -1.449317355093697302e+00 -1.243288394200925628e+00 -1.904461864349831890e+00 1.449317355093697302e+00 -2.420878284090851373e+00 1.904461864349831890e+00 -2.420688939193101685e+00 2.370679200360124472e+00 -2.060975999395905589e+00 2.054950120911931855e+00 1.293487477931652530e+00 2.060975999395905589e+00 -1.815056173374867354e+00 -1.293487477931652530e+00 -1.787416845486893280e+00 -2.054950120911931855e+00 -2.370679200360124472e+00 1.787416845486893280e+00 1.815056173374867354e+00 -2.821650178915830587e+00 -2.723584582264832576e+00 -3.331634237990271696e+00 2.821650178915830587e+00 1.124808262617965848e+00 -5.383720562965271794e-01 3.171219008547138785e+00 -3.671843975972405083e+00 3.311370883695626155e+00 -4.929476713321697123e-01 -1.765488699687479679e-01 -3.311370883695626155e+00 8.425164993759464149e-01 -1.124808262617965848e+00 3.331634237990271696e+00 -8.425164993759464149e-01 2.723584582264832576e+00 5.383720562965271794e-01 4.929476713321697123e-01 3.671843975972405083e+00 -5.586354105911728318e-01 -3.171219008547138785e+00 1.765488699687479679e-01 5.586354105911728318e-01 -1.560422021093450740e+00 3.027415196799464248e+00 1.160026646437407383e+00 -5.461953433860350371e-01 -1.168618362338073702e+00 -3.383848365037964712e+00 -2.253330597823196335e+00 -7.493359651028440593e-01 -1.536686618700612739e+00 -2.103744657198326262e+00 -3.027415196799464248e+00 -2.709979647849391160e+00 -3.117971334905741632e+00 1.168618362338073702e+00 4.861579308363656038e-01 2.253330597823196335e+00 3.099056879779954254e+00 -2.333319675586186470e+00 1.410836080468580889e+00 -3.099056879779954254e+00 1.536686618700612739e+00 2.734934009947007638e-01 1.457016925843122701e+00 -2.748950612481717570e+00 5.461953433860350371e-01 2.679774482544725611e+00 -4.861579308363656038e-01 3.117971334905741632e+00 -2.679774482544725611e+00 3.383848365037964712e+00 1.560422021093450740e+00 -8.209776480833345103e-01 2.709979647849391160e+00 -3.390673279942962193e+00 2.391375919039676390e+00 2.748950612481717570e+00 2.103744657198326262e+00 8.209776480833345103e-01 -1.160026646437407383e+00 -2.734934009947007638e-01 -2.391375919039676390e+00 -1.121055681805081417e+00 3.390673279942962193e+00 -1.457016925843122701e+00 1.121055681805081417e+00 -1.410836080468580889e+00 7.493359651028440593e-01 2.333319675586186470e+00
