1.139471750415656288e+02 2.205518589460080250e+02 2.032955881986647455e+02 -1.139459784500648141e+02 -2.205517437605777786e+02 2.032897188839289981e+02 -1.139477962201358423e+02 2.205536823725064437e+02 -2.032939745741999786e+02 1.139464829005428044e+02 -2.205537173395120192e+02 -2.032913818735781604e+02 1.242627481719507898e+02 -6.858075879175247280e+01 5.074026543390809252e+01 -1.242619701560759751e+02 6.858067291690045408e+01 5.073869860352436945e+01 1.242617207590506609e+02 6.858183145607161180e+01 -5.073968544441358119e+01 -1.242624242129282379e+02 -6.858172501239278063e+01 -5.073927663898034268e+01 2.185118560708210822e+01 1.163027931947098104e+01 -5.145219423376459211e+00 -2.185107962620186939e+01 1.163011291766193089e+01 5.145122184247624020e+00 -2.091251444205696752e-01 4.715045714723636650e+01 -5.852575515918483262e+01 -2.093220765392808935e-01 -4.715044958819250809e+01 5.852689364374983683e+01 2.185118349877736321e+01 -1.163010947238343817e+01 5.146392463570530929e+00 -2.185130418636878247e+01 -1.163030081389501724e+01 -5.146273575751457940e+00 2.092103610701232241e-01 -4.715048866896348301e+01 -5.852697746171917004e+01 2.092529724802240365e-01 4.715047545349224833e+01 5.852583897715417294e+01 -2.089186190010252915e+02 -4.315760804674060296e+02 7.804353447783913111e+01 -1.142469934605180555e+02 1.871922572735949686e+01 4.176453622151946661e+02 4.382205119018051391e+02 -2.869014008777209028e+02 -6.139984967333107591e+01 2.089175998156559046e+02 4.315759375140596035e+02 7.804691290764583300e+01 1.142465682000233613e+02 -1.871912324317982268e+01 4.176387503658103810e+02 -4.382202321657602511e+02 -2.869022765955231762e+02 6.139873432869626413e+01 4.382211968437384826e+02 2.869021269573079849e+02 6.139739272696633066e+01 2.468800627026766961e+02 -1.039604506580989920e+02 3.897381996660685104e+02 1.142463306300734871e+02 1.871806266304644240e+01 -4.176457669068626046e+02 -1.142458205231681063e+02 -1.871823127600437431e+01 -4.176382443726704423e+02 2.089183582911452106e+02 -4.315751358440338663e+02 -7.804246438462331525e+01 2.468806797674815812e+02 1.039592622941289193e+02 -3.897335433978950050e+02 -2.089174316654965935e+02 4.315751852092182617e+02 -7.804791100996770581e+01 -2.468807815831744108e+02 -1.039591995592071072e+02 -3.897391540596333925e+02 -2.468798282180508181e+02 1.039604578571883877e+02 3.897343676936302472e+02 -4.382214832646520790e+02 2.869016286774780156e+02 -6.139628869518626431e+01
