5.055135170809800016e+00 0.000000000000000000e+00 0.000000000000000000e+00 0.000000000000000000e+00 5.569142987558733715e+00 0.000000000000000000e+00 0.000000000000000000e+00 0.000000000000000000e+00 1.263384078696370416e+01
