-1.952253773866942377e-01 1.774015744841229703e+00 -4.723318924236988181e+00 -2.332342205901496879e+00 -1.010555748938137377e+00 -4.723318924236988181e+00 2.332342205901496879e+00 -1.774015744841229703e+00 1.593601469244864344e+00 2.332342205901496879e+00 1.010555748938137377e+00 4.723318924236988181e+00 -1.952253773866942377e-01 -1.010555748938137377e+00 -1.593601469244864344e+00 -2.332342205901496879e+00 1.774015744841229703e+00 -1.593601469244864344e+00 1.952253773866942377e-01 1.010555748938137377e+00 1.593601469244864344e+00 1.952253773866942377e-01 -1.774015744841229703e+00 4.723318924236988181e+00 1.955195353562070526e+00 1.801268794532503215e+00 7.378847766430574051e-01 5.723722318428295930e-01 -9.833026992468637539e-01 7.378847766430574051e-01 1.263783792702450004e+00 2.675567936478123077e+00 3.158460196740926040e+00 -1.263783792702450004e+00 -2.675567936478123077e+00 -3.158460196740926040e+00 -1.263783792702450004e+00 1.090035546553578399e-01 -3.158460196740926040e+00 5.723722318428295930e-01 1.801268794532503215e+00 5.579035638005882980e+00 1.955195353562070526e+00 -9.833026992468637539e-01 5.579035638005882980e+00 -5.723722318428295930e-01 9.833026992468637539e-01 -7.378847766430574051e-01 -1.955195353562070526e+00 -1.801268794532503215e+00 -7.378847766430574051e-01 -1.955195353562070526e+00 9.833026992468637539e-01 -5.579035638005882980e+00 -5.723722318428295930e-01 -1.801268794532503215e+00 -5.579035638005882980e+00 1.263783792702450004e+00 -1.090035546553578399e-01 3.158460196740926040e+00
