-2.650122898506662068e+02 -2.019262195809492084e+02 -4.329543286476637718e+02 2.650266988280807823e+02 -2.019155921823472113e+02 -4.329497896218031769e+02 -2.649844951949718848e+02 2.019175148534350797e+02 -4.326798551371302892e+02 -2.649828203782473111e+02 2.019391280624465992e+02 4.331802725823969240e+02 -2.650156086308751355e+02 -2.019240937926964250e+02 4.324602993657895809e+02 2.650189680345170018e+02 -2.019235718587156327e+02 4.324455648866905335e+02 2.649903377702327134e+02 2.019250970372250151e+02 -4.326756616675604619e+02 2.649808437139889747e+02 2.019018064403855988e+02 4.331778192355768056e+02 -2.279848529211798791e+01 -1.401815844336722989e+02 1.804247239817262596e+02 2.280253133462150217e+01 -1.401849340671214463e+02 1.804256187256933401e+02 2.013609866770195954e-03 1.741859735757630574e+02 1.712703290029803926e-01 9.204554839760601542e-03 -1.742097670804184304e+02 -1.217947800013412518e-01 8.672731881249727201e-03 -1.741673593017032431e+02 -1.199162660709147538e-01 2.279526107709044069e+01 -1.401840125836794755e+02 -1.803500447421573369e+02 -2.280407795613285771e+01 -1.401774120471499714e+02 -1.803683869934823178e+02 -2.281509575106807830e+01 1.401848055119537548e+02 -1.805941627780561873e+02 2.281385817617983136e+01 1.401759269778528960e+02 -1.805842475750831397e+02 2.282277800220053265e+01 1.401992031765135494e+02 1.804481184511411698e+02 -2.280510943137628033e+01 1.401615344554998046e+02 1.804483796752419096e+02 3.966473698994834110e-03 1.741930888471839580e+02 1.703923008072517620e-01
