5.395099248855424356e+00 0.000000000000000000e+00 0.000000000000000000e+00 0.000000000000000000e+00 5.854049351897408826e+00 0.000000000000000000e+00 0.000000000000000000e+00 0.000000000000000000e+00 6.791189383006916991e+00
