2.657434578665917257e+00 -1.876232006445382572e+00 1.651233148530461881e+00 2.648938649132154488e+00 8.746735930316620333e-01 -3.395594691503458495e+00 -4.011504465052267987e-02 1.876232006445382572e+00 1.744361542972996615e+00 -4.011504465052267987e-02 1.876232006445382572e+00 -1.744361542972996615e+00 2.657434578665917257e+00 -1.876232006445382572e+00 -1.651233148530461881e+00 -4.861097720059541494e-02 -8.746735930316620333e-01 0.000000000000000000e+00 1.031197692484612551e-02 -1.064553256103509371e+00 -3.395594691503458495e+00 -2.687237648667055723e+00 1.064553256103509371e+00 0.000000000000000000e+00 2.213739458667052684e+00 -4.016294079736674738e-01 0.000000000000000000e+00 1.549854045273588721e+00 -1.090521585238034774e+00 -3.395594691503458495e+00 2.192479854188511545e+00 1.788055096704226576e+00 -1.269573128973254583e+00 2.192479854188511545e+00 1.788055096704226576e+00 1.269573128973254583e+00 -4.838101647023047569e-01 4.016294079736674738e-01 -3.395594691503458495e+00 -5.050697691808462286e-01 -1.788055096704226576e+00 2.126021562530203912e+00 -5.050697691808462286e-01 -1.788055096704226576e+00 -2.126021562530203912e+00 -1.147695579154123680e+00 1.090521585238034774e+00 0.000000000000000000e+00
