3.659355243992289530e+01 4.987944655852269307e+02 -1.008398120149293931e+01 3.081948201678565979e+01 -7.968271622414924877e+02 9.514754808412360975e-04 3.659263450460357348e+01 -4.987946486477857206e+02 1.008389548090712751e+01 3.659283237671766642e+01 -4.987941102587434443e+02 -1.008379484792186531e+01 3.659336521217668547e+01 4.987945483747549815e+02 1.008389815485461583e+01 3.081872642093208015e+01 7.968265040390340346e+02 -9.669550039857731111e-04 -2.149475879421570923e+01 1.270660519832401434e+02 5.512421576131833201e-04 -2.149456981811921352e+01 -1.270658514371785657e+02 -5.559468088095622729e-04 2.302786149556211797e+02 5.213310467711985439e+02 -6.675244102632007593e-04 -4.632235057408573198e+02 2.524294468205751514e+02 7.361774412275624846e-04 2.676021154647223170e+02 -4.954493896738894136e+02 3.906428223264459803e+02 2.676021859129540985e+02 -4.954494292688810333e+02 -3.906433170067312517e+02 2.302758391924405430e+02 -5.213314941431821126e+02 5.249974041580642492e-04 2.675991900633264891e+02 4.954497593985516346e+02 3.906433668861363344e+02 2.675992605115583274e+02 4.954496035896884223e+02 -3.906428392957280948e+02 -4.632282041751257680e+02 -2.524292041084185598e+02 -5.355711335486592044e-04
