5.367179859220475358e+00 0.000000000000000000e+00 0.000000000000000000e+00 0.000000000000000000e+00 6.246261741838535997e+00 0.000000000000000000e+00 0.000000000000000000e+00 0.000000000000000000e+00 6.788244511829538475e+00
