2.282591822111241342e+00 -2.931826615170347594e+00 -2.738846222357263382e+00 -2.282591822111241342e+00 -2.931826615170347594e+00 2.738846222357263382e+00 -4.009981085573507409e-01 2.931826615170347594e+00 -6.552760335575061879e-01 4.009981090865279985e-01 2.931826615170347594e+00 6.552760335575061879e-01 2.638253360016459048e+00 2.501515392266027593e+00 -7.908033338100503018e-01 -2.638253360016459048e+00 2.501515392266027593e+00 7.908033338100503018e-01 -4.533656827083535484e-02 -2.501515392266027593e+00 -2.603318922104719046e+00 4.533656827083535484e-02 -2.501515392266027593e+00 2.603318922104719046e+00 -2.683589929610237679e+00 -3.074853515396176906e+00 0.000000000000000000e+00 0.000000000000000000e+00 3.074853515396176906e+00 -3.394122255914769237e+00 -2.683589929610237679e+00 3.788045433443815169e-01 -3.394122255914769237e+00 0.000000000000000000e+00 -3.788045433443815169e-01 0.000000000000000000e+00 -2.683589929610237679e+00 -2.332847591304775037e+00 -3.394122255914769237e+00 0.000000000000000000e+00 2.332847591304775037e+00 0.000000000000000000e+00 2.682913667593861629e+00 8.560938954093446629e-01 -2.283782677214361012e+00 -2.682913667593861629e+00 8.560938954093446629e-01 2.283782677214361012e+00 -6.762646622617799093e-04 -8.560938954093446629e-01 -1.110339578700408225e+00 6.762646622617799093e-04 -8.560938954093446629e-01 1.110339578700408225e+00
