1.799281919878476899e+01 -9.373840398330639090e+00 -2.699344419925856542e+01 -1.786187840714427111e+01 -9.183765617951882732e+00 2.414765527046512261e+01 1.823106180072191052e+01 9.847877243325369179e+00 2.717915864545986082e+01 -1.750462081936223413e+01 9.745904250417439130e+00 -2.437052704522310620e+01 -4.429482438929898680e-01 1.232290489241304243e+01 -8.321565905799371166e+00 8.046964560007183187e-02 1.265697159074371037e+01 1.032118070679950250e+01 -1.372134117051537761e-01 -1.183557302624275920e+01 8.539516845848790894e+00 4.053776454392030715e-01 -1.207955633632587400e+01 -1.057182281461411577e+01 -6.025503505187577158e-01 5.094093855942094962e+00 1.266357238438355104e+01 1.057228072812140374e+00 -2.843590769123442996e+00 -1.263487213466596870e+01 -5.870843462356540865e-01 1.139133182383839937e+02 -1.189208510662509788e+01 -2.177805175489492748e-02 -1.160191516438379011e+02 1.191405662459996151e+01 -4.543545675119510241e-01 -7.387358330462373601e+01 -1.465447772703937623e+01 1.329292444076589641e+00 7.657095097287378849e+01 1.443669925660291753e+01 -8.559686174638945211e-01 3.554558315711319949e+01 -2.181602546018847022e+02 -1.393937880816988661e+00 3.671242652930401107e+01 1.974583222662435276e+02 4.126046158742051329e-02 -3.751239073074275154e+01 2.184217630666470313e+02 -5.407927924918046747e-01 -3.934086451072664659e+01 -1.975955919316331801e+02
