3.132701569951445109e+00 0.000000000000000000e+00 0.000000000000000000e+00 0.000000000000000000e+00 5.744684826945450240e+00 0.000000000000000000e+00 0.000000000000000000e+00 0.000000000000000000e+00 1.051716845751124119e+01
