0.000000000000000000e+00 -2.872342413472725120e+00 2.230691428356438091e-02 -1.566350784975722554e+00 0.000000000000000000e+00 -6.326076852593517375e-01 -1.566350784975722554e+00 -1.547945541204446718e+00 4.040065090464018405e-01 0.000000000000000000e+00 0.000000000000000000e+00 -1.544688085048725457e+00 0.000000000000000000e+00 -2.872342413472725120e+00 -1.605719209319211194e+00 -1.566350784975722554e+00 1.547945541204446718e+00 4.040065090464018405e-01
