3.518943191510423563e-01 -9.613550894594449403e+01 -4.573610306542742023e+02 5.471588855331089851e-01 -1.175494754452576096e+01 6.829507784170043578e+02 -2.332162686873317722e-02 -9.162143872877250317e+01 -6.014555027198773587e+02 -3.277220261798466372e-01 1.837496650684806809e+01 1.179513599824814264e+03 4.248976143094732594e-01 -1.504684599368652975e+01 1.292971850253104321e+03 4.098146164943296255e-02 9.141829328169683322e+01 -5.914281636451743225e+02
