5.121011383411686602e+00 0.000000000000000000e+00 0.000000000000000000e+00 0.000000000000000000e+00 6.500737770677631033e+00 0.000000000000000000e+00 0.000000000000000000e+00 0.000000000000000000e+00 7.651654282176395760e+00
