-2.203100065090838999e+00 0.000000000000000000e+00 1.044098831793407234e+00 2.203100065090838999e+00 0.000000000000000000e+00 -2.781728309294790424e+00 1.770712588941594889e+00 -8.996631030796110595e-01 -2.628343246721357926e-02 1.770712588941594889e+00 8.996631030796110595e-01 -2.628343246721357926e-02 -1.770712588941594889e+00 8.996631030796110595e-01 3.799543708091807304e+00 -1.770712588941594889e+00 -8.996631030796110595e-01 3.799543708091807304e+00 3.574056266150046901e-01 -3.250368885338815517e+00 1.044098831793407234e+00 -3.574056266150046901e-01 -3.250368885338815517e+00 -2.781728309294790424e+00 -7.897931027642486335e-01 2.350705782259205012e+00 -2.628343246721357926e-02 -7.897931027642486335e-01 -2.350705782259205012e+00 -2.628343246721357926e-02 7.897931027642486335e-01 -2.350705782259205012e+00 3.799543708091807304e+00 7.897931027642486335e-01 2.350705782259205012e+00 3.799543708091807304e+00 1.919662326264936603e+00 0.000000000000000000e+00 5.803626754296439261e-01 -1.919662326264936603e+00 0.000000000000000000e+00 -3.245464465658554065e+00 -6.408433654409069202e-01 -3.250368885338815517e+00 5.803626754296439261e-01 6.408433654409069202e-01 -3.250368885338815517e+00 -3.245464465658554065e+00 6.951107212330880358e-01 0.000000000000000000e+00 1.888948589910184106e+00 -6.951107212330880358e-01 0.000000000000000000e+00 -1.936878551178013996e+00 -1.865394970472755487e+00 -3.250368885338815517e+00 1.888948589910184106e+00 1.865394970472755487e+00 -3.250368885338815517e+00 -1.936878551178013996e+00
