-1.455793259042134835e+01 1.535131060208729133e-04 -5.445068798413275069e+00 1.455803492033482449e+01 -2.294704960885197748e-04 -5.446053325309456739e+00 2.147336793422223167e+00 -4.849817512067557068e+00 2.708806116262755914e+00 2.147348949598879564e+00 4.850093967384554006e+00 2.708861580104300337e+00 -2.147392972030500502e+00 4.849851070108528006e+00 2.707793487206918481e+00 -2.147391547639242670e+00 -4.850219689196341832e+00 2.707852154643242137e+00 -1.455807765207256210e+01 -1.275578084097496901e-04 -5.445014856664915470e+00 1.455790497677132933e+01 2.329636449273183489e-04 -5.446138840206999454e+00 2.147336027233424094e+00 -4.850179194318521958e+00 2.708945449495697044e+00 2.147339251397029525e+00 4.849955343776138683e+00 2.708896814504659023e+00 -2.147360015627713281e+00 4.850212556955638910e+00 2.707831395554764597e+00 -2.147354688301564618e+00 -4.849847470563832807e+00 2.707777597788192825e+00 -4.712563360715542871e+01 7.480995292077082621e-04 3.844879572527198519e+01 4.712542791888714078e+01 -1.104188092859113282e-03 3.844449653193226624e+01 -4.712577491499574478e+01 -7.279325812592615710e-04 3.844926155777760357e+01 4.712556357030008058e+01 1.136078284796540735e-03 3.844428852967095622e+01 7.831148098539898683e+01 -1.166010062167282131e-04 -1.725026840372002823e+01 -7.831193247114786971e+01 -6.055449917278607095e-04 -1.725289725405500718e+01 7.831227699899726247e+01 2.344556227791010121e-05 -1.724941752277616658e+01 -7.831120124935409876e+01 6.251890441028610731e-04 -1.725357803080098762e+01
