5.467016019317109787e+00 0.000000000000000000e+00 0.000000000000000000e+00 0.000000000000000000e+00 6.526316609509787092e+00 0.000000000000000000e+00 0.000000000000000000e+00 0.000000000000000000e+00 1.058551592768695748e+01
