-9.093967834009029083e-01 3.024614907419585080e-02 -4.084987012670832307e+00 1.824111226257651763e+00 -3.024614907419585080e-02 -1.207770951172645990e+00 -1.824111226257651763e+00 -3.232912154675261274e+00 4.084987012670832307e+00 9.093967834009029083e-01 3.232912154675261274e+00 1.207770951172645990e+00 9.093967834009029083e-01 -3.024614907419585080e-02 4.084987012670832307e+00 -1.824111226257651763e+00 3.024614907419585080e-02 1.207770951172645990e+00 1.824111226257651763e+00 3.232912154675261274e+00 -4.084987012670832307e+00 -9.093967834009029083e-01 -3.232912154675261274e+00 -1.207770951172645990e+00 -1.171554089333251891e+00 6.503443824179834243e-01 5.176601401766621535e+00 1.561953920325302780e+00 -6.503443824179834243e-01 1.161565599601477872e-01 -1.561953920325302780e+00 -2.612813922336910455e+00 -5.176601401766621535e+00 1.171554089333251891e+00 2.612813922336910455e+00 -1.161565599601477872e-01 1.171554089333251891e+00 -6.503443824179834243e-01 -5.176601401766621535e+00 -1.561953920325302780e+00 6.503443824179834243e-01 -1.161565599601477872e-01 1.561953920325302780e+00 2.612813922336910455e+00 5.176601401766621535e+00 -1.171554089333251891e+00 -2.612813922336910455e+00 1.161565599601477872e-01 -4.079958061717584017e-01 -2.308980275616861366e+00 -2.234300300514220794e+00 2.325512205603505134e+00 2.308980275616861366e+00 -3.058457663329257503e+00 -2.325512205603505134e+00 9.541780291380320689e-01 2.234300300514220794e+00 4.079958061717584017e-01 -9.541780291380320689e-01 3.058457663329257503e+00 4.079958061717584017e-01 2.308980275616861366e+00 2.234300300514220794e+00 -2.325512205603505134e+00 -2.308980275616861366e+00 3.058457663329257503e+00 2.325512205603505134e+00 -9.541780291380320689e-01 -2.234300300514220794e+00 -4.079958061717584017e-01 9.541780291380320689e-01 -3.058457663329257503e+00
