1.318847886918482288e+02 2.328358883443372385e+00 -3.413709041961956814e+02 1.275182298731648558e+02 1.184550381010211950e+01 3.359730655379477184e+02 -1.294395393046922607e+02 -1.675434766395272845e+01 3.656354864080501557e+02 -1.276585498955732731e+02 2.597817811697775259e+00 -3.617615921295807766e+02 -1.299742753233028338e+02 1.658561119021489816e+01 3.637947543271849327e+02 -1.306711641455597146e+02 -2.388078091300374073e+00 -3.612232226277108680e+02 1.263389928057901272e+02 -1.829087358372626371e+00 -3.415703739939169736e+02 1.316796264713019582e+02 -1.207310749489423607e+01 3.381847317280861489e+02 9.965200340319425720e+01 7.887045479532444858e+01 8.665773755665797751e+01 9.777174626469400209e+01 -6.738696053764465432e+01 -9.238341297554448772e+01 -9.820708908407962667e+01 6.464892469920850715e+01 -6.514495275682979525e+01 -9.668469353696124813e+01 -7.598889431125986960e+01 5.981484416000649418e+01 -9.854355138224903499e+01 -6.511904631943833976e+01 -6.259816329914857391e+01 -9.992322292532331574e+01 7.266796928794386190e+01 6.090720158817850205e+01 9.673482439593014703e+01 -7.818455229769773496e+01 8.905251875608502132e+01 9.860329508243658836e+01 7.086556567321296995e+01 -8.932117694505319605e+01 1.543030132486996990e+02 -5.126503518743302124e+00 1.798749161552565567e+02 1.448953316794958539e+02 -1.434812721432870974e+00 -1.828647180336273550e+02 -1.499317729650299782e+02 -2.835087353859692350e+00 -1.821907691097124768e+02 -1.493024069732674661e+02 9.951720302546547714e+00 1.893376841280331746e+02 -1.483150472354106739e+02 -7.398202113122616108e-01 -1.812655781367263899e+02 -1.498344783003622922e+02 -7.187785071542142745e+00 1.896806014382822241e+02 1.444980597016884758e+02 1.038203820895985707e+01 1.817517547547377887e+02 1.534591838128987149e+02 -1.988080337703790113e+00 -1.822253201107995437e+02
