3.918069343623112211e+00 0.000000000000000000e+00 0.000000000000000000e+00 0.000000000000000000e+00 1.036259314838848056e+01 0.000000000000000000e+00 0.000000000000000000e+00 0.000000000000000000e+00 3.972964070749175125e+00
