-1.959034671811556105e+00 1.441342305271941404e+00 9.512979186676953081e-01 0.000000000000000000e+00 3.739954268922298652e+00 -1.035184116706892477e+00 0.000000000000000000e+00 -3.739954268922298652e+00 9.512979186676953081e-01 -1.959034671811556105e+00 -1.441342305271941404e+00 -1.035184116706892477e+00 -1.959034671811556105e+00 4.850735446005011831e+00 3.827403406537392416e-01 0.000000000000000000e+00 3.305611255433428264e-01 -1.603741695250025634e+00 0.000000000000000000e+00 -3.305611255433428264e-01 3.827403406537392416e-01 -1.959034671811556105e+00 -4.850735446005011831e+00 -1.603741695250025634e+00 -1.959034671811556105e+00 4.116096298407016185e+00 1.028226579409356800e+00 0.000000000000000000e+00 1.065200275787223427e+00 -9.582554559652307624e-01 0.000000000000000000e+00 -1.065200275787223427e+00 1.028226579409356800e+00 -1.959034671811556105e+00 -4.116096298407016185e+00 -9.582554559652307624e-01
