-1.859663510808067244e+00 2.771748459283899706e+02 3.669914482644383913e+00 4.481644243291093233e+00 -4.193942673397840508e+02 -4.340805583056375205e+00 2.316463036144054133e+00 2.601282877403082807e+02 6.011453659489459866e+00 -5.020345335218358684e+00 -3.208493219052966197e+02 -1.933187234823387168e+00 8.536806234427168905e-01 -8.231904332768017696e+00 1.717322071516377591e+01 4.296490698713022194e-02 7.477949408778141560e+01 2.534657305414866357e+01 -1.159483131184586568e+00 2.904514862860655189e+00 1.781862653519807438e+01 2.004501028657552919e-01 6.560270531304587394e+01 2.568537685614224486e+01 4.422874662173350124e+00 -1.530270728704286398e+02 6.093096012582829069e+00 3.067463551550105194e+00 2.306875931669977149e+02 -4.448359032380453382e-01 -5.630985898980901183e+00 -7.517917827475518777e+01 1.593971814609507875e+00 -3.441905103454092618e+00 1.926381791641009897e+02 -2.870747960878913929e+00
