2.830037605954317304e+00 0.000000000000000000e+00 0.000000000000000000e+00 0.000000000000000000e+00 6.461515684999981524e+00 0.000000000000000000e+00 0.000000000000000000e+00 0.000000000000000000e+00 1.233154513030520150e+01
