7.075094014885793259e-01 -2.535395370500698853e+00 -3.030588201564134554e+00 -7.075094014885793259e-01 -6.953624719992921310e-01 3.135184363588466638e+00 7.075094014885793259e-01 6.953624719992921310e-01 -3.135184363588466638e+00 -7.075094014885793259e-01 2.535395370500698853e+00 3.030588201564134554e+00 7.075094014885793259e-01 -2.253556979833920781e+00 1.214324244707178480e+00 -7.075094014885793259e-01 -9.772008626660700914e-01 -4.951448320445423157e+00 7.075094014885793259e-01 9.772008626660700914e-01 4.951448320445423157e+00 -7.075094014885793259e-01 2.253556979833920781e+00 -1.214324244707178480e+00 7.075094014885793259e-01 -2.208481448066393682e+00 -4.817416755454154043e+00 7.075094014885793259e-01 -2.947019763856400854e+00 -1.253513891821814052e+00 -7.075094014885793259e-01 -2.837380765268812111e-01 4.912258673330787140e+00 -7.075094014885793259e-01 -1.022276394433597080e+00 1.348355809698447372e+00 7.075094014885793259e-01 1.022276394433597080e+00 -1.348355809698447372e+00 7.075094014885793259e-01 2.837380765268812111e-01 -4.912258673330787140e+00 -7.075094014885793259e-01 2.947019763856400854e+00 1.253513891821814052e+00 -7.075094014885793259e-01 2.208481448066393682e+00 4.817416755454154043e+00
