-3.238900902512262547e+01 -4.274427078673824099e+01 1.634985088572157565e+03 -2.738061204941848104e+01 -3.003070396612973703e+00 -9.646305825722809004e+02 1.481731274724956249e+00 1.011161202648160184e+02 5.350232365662018310e+02 5.887715351095629757e+01 -6.623585956848965850e+01 -1.938674694431233320e+03 -9.506240393968463209e+00 1.201667681564407246e+02 -1.531126309625075464e+03 2.486292167100706774e+00 -3.721815114326913658e+02 1.293015276188747521e+03 5.931895237086294514e+00 -1.106923088624943858e+02 -9.571502556128096728e+01 5.612942255599417507e+00 7.079439393283909112e+02 2.076798542061447392e+02 -1.001206096151074831e+01 -3.756572801270399395e+02 4.007458284586264199e+02 -7.438732677857237796e+00 4.797180979183142426e+02 1.175096223148346013e+02 -1.337028770654777787e+01 -3.042363797835882906e+02 2.120506090655013054e+01 5.232434848677145034e+00 2.041982048842057225e+02 -5.713749253136464858e+02 3.155241945641107382e-01 -2.221452118034805494e+02 2.750267944916484453e+02 1.260239930499757044e+01 3.572357503728144366e+02 2.268616967601551266e+02 8.877114183304703587e+00 -2.290568996612993828e+02 -5.764132080234024897e+02 1.587698841789465964e+00 1.954514105196595324e+02 1.580086925760354859e+02
