5.457870778762310415e+00 0.000000000000000000e+00 0.000000000000000000e+00 0.000000000000000000e+00 9.334567460523610194e+00 0.000000000000000000e+00 0.000000000000000000e+00 0.000000000000000000e+00 9.941016185850065412e+00
