9.844634441666962887e-01 1.513814807056727885e+00 -1.287789059597413299e+00 9.647823594322670893e-01 -1.369175683790238685e+00 5.789946041704429058e-01 9.310963828548001198e-01 -4.387909458568283405e+00 -1.387169397028320539e+00 1.009771587688506056e+00 -1.450871818441812566e+00 -3.513343997607850433e+00 1.764153029948887896e+00 3.298108046471566190e+00 -4.391513488754589467e+00 1.797839006526354977e+00 2.793742695768121065e-01 3.583338695896711723e+00 1.719163801692649152e+00 3.216411911819992309e+00 1.457164095317182273e+00 1.744471945214459030e+00 -3.153468923205076990e+00 3.682719033327618963e+00 -1.719163801692649152e+00 -3.216411911819992309e+00 -3.513343997607850433e+00 -1.797839006526354977e+00 -2.793742695768121065e-01 -1.387169397028320539e+00 -1.744471945214459030e+00 3.153468923205076990e+00 -1.287789059597413299e+00 -1.764153029948887896e+00 -3.298108046471566190e+00 5.789946041704429058e-01 -9.647823594322670893e-01 1.369175683790238685e+00 -4.391513488754589467e+00 -1.009771587688506056e+00 1.450871818441812566e+00 1.457164095317182273e+00 -9.310963828548001198e-01 4.387909458568283405e+00 3.583338695896711723e+00 -9.844634441666962887e-01 -1.513814807056727885e+00 3.682719033327618963e+00 -1.659138140581297161e-01 1.633455958731669655e-01 -5.930810263463287546e-02 4.683944700111270648e-02 3.031158083085849331e+00 -9.477764824604313632e-02 1.659138140581297161e-01 -1.633455958731669655e-01 4.911199990819576477e+00 1.231568542471281752e-01 -3.064631843726521421e+00 2.059778556036512970e-02 -1.231568542471281752e-01 3.064631843726521421e+00 -4.949910309216787319e+00 -4.683944700111270648e-02 -3.031158083085849331e+00 4.875730443620634347e+00 8.652853754688119015e-01 1.547876647623389612e+00 2.322420201994471967e+00 9.039216408071615305e-01 4.603883347324846831e+00 2.696421111691781558e+00 8.858615475797730898e-01 -1.508326080483988640e+00 2.587924860707090602e+00 1.843073841801382118e+00 3.158957649777816457e+00 -2.382583232217941660e+00 1.825013748573993677e+00 -6.340038240778066159e-02 -2.274086981233250704e+00 1.863650013912343306e+00 -3.119407082638415041e+00 -2.648087890930560295e+00 -2.682095940633757891e+00 1.636125647175955544e+00 -9.477764824604313632e-02 2.605778537779912973e+00 1.602651886535283454e+00 -4.949910309216787319e+00 -2.605778537779912973e+00 -1.602651886535283454e+00 2.059778556036512970e-02 2.682095940633757891e+00 -1.636125647175955544e+00 4.875730443620634347e+00 -2.563021574793848512e+00 -4.503938134388637771e+00 4.911199990819576477e+00 2.563021574793848512e+00 4.503938134388637771e+00 -5.930810263463287546e-02 -1.843073841801382118e+00 -3.158957649777816457e+00 2.587924860707090602e+00 -1.825013748573993677e+00 6.340038240778066159e-02 2.696421111691781558e+00 -1.863650013912343306e+00 3.119407082638415041e+00 2.322420201994471967e+00 -8.858615475797730898e-01 1.508326080483988640e+00 -2.382583232217941660e+00 -9.039216408071615305e-01 -4.603883347324846831e+00 -2.274086981233250704e+00 -8.652853754688119015e-01 -1.547876647623389612e+00 -2.648087890930560295e+00
