1.821699570565059503e+02 4.129383234922414658e+02 3.425189625216419813e+02 2.272645542028879788e+02 2.351516811349746376e+02 8.507104179998868858e+02 8.496563324735754463e+01 -6.929007427073825056e+02 2.613063107326793784e+02 9.919640594580921800e+01 -1.030631998652571113e+01 -1.090929051703893492e+03 -8.298842751470100154e+01 2.666641815892947989e+02 -4.056752928184836833e+02 4.233796719133634667e+01 -7.453634432940555143e+02 -4.393547783146416918e+01 -6.597113876719731707e+01 1.096347646879515452e+02 8.491830437682344268e+01 -3.192285909108730024e+01 3.869424584981836119e+02 -1.811115772733731717e+02 -3.463839731238038233e+00 4.894993217240332939e+01 -1.216419088808016340e+03 -5.877143694014337427e+01 7.665163168189083081e+02 2.238467566900749262e+02 -4.963708895709009283e+01 -5.990927050177284627e+02 3.876436991699768555e+02 5.667816234613075466e+01 -3.173979051592518772e+02 1.113051498587823289e+03 -2.034445409576933912e+02 -2.589724235450802894e+02 -3.004662835186093162e+02 -4.768340686608095069e+01 1.883974825394477932e+02 -7.372426853424288140e+01 1.970665416509788992e+00 7.901067300204007324e+02 -2.815140636340106539e+02 -1.450573183898655145e+02 -6.760592495521403862e+02 -7.703206396117310817e+01 3.638049153276385539e+01 3.162906425307180598e+02 1.487839979751732642e+02 7.462141853983331430e+01 -2.739139484550717611e+02 9.352200552688395874e+01 5.366874449183358564e+01 -3.372671661334263149e+02 -3.702747508466010231e+02 1.421475703855141433e+02 -1.528634663649461345e+02 5.935236077361968228e+02 -4.544344398660737028e+01 1.990620397555553325e+02 -1.600482588778729109e+02 2.073140993274671384e+00 2.321674750059427481e+02 -6.954531747084836297e+02 7.319932379142370849e+01 4.775750426496095002e+01 -1.130252673675621651e+02 1.019459392442222594e+02 3.532398942641024746e+02 1.100512577202102023e+02 1.079106326583953148e+02 -3.448394815144640688e+02 5.344313017255033174e+02 1.151720733618392423e+01 -2.858834398677489048e+02 2.549670918920687654e+02 -7.813845498567003744e+01 3.590854226942609557e+02 -6.179960070899205249e+01 -8.927389538282081105e+01 -4.239563657676023212e+01 -4.615729000681261596e+02 2.225534973596136723e+01 2.643178600316567781e+02 -3.016216808014682726e+01 -1.283568610522054314e+02 -1.353477908296045484e+02 -4.195610805253691922e+01 3.660786777775331302e+01 1.749459439045812132e+02 5.585432066780109608e+02 -9.585485244606616106e+01 -2.970477414142650900e+02 -6.742213991639139294e+02 -5.713733569406007717e+01 3.260181148497255776e+02 -5.194821149275179550e+02 -2.741091049698070137e+01 -3.456341108307101990e+02 3.143966803829015362e+02 -3.363565543448967787e+01 1.479846501700525607e+02 5.535051810785903399e+02 1.275141258779917486e+01 -3.697373650488741532e+02 1.185953786922564603e+02 3.927195539272605629e+01 1.811189491409087680e+02 -1.014487845291113928e+02 -6.427462912941072659e+01 1.905975767076120633e+02 2.926132766706876964e+02 -7.658437058971786371e+01 -3.367538612897097892e+02 -9.258647254776815316e+01 -1.078898987667307807e+01 9.926901081919241676e+01 -4.110642457435413917e+02
