5.527437473231409548e+00 0.000000000000000000e+00 0.000000000000000000e+00 0.000000000000000000e+00 5.620345645285953040e+00 0.000000000000000000e+00 0.000000000000000000e+00 0.000000000000000000e+00 7.987767537659974160e+00
