1.368214777352243505e+00 -2.649378501229663563e+00 9.164404019552980785e-01 1.395503959263461491e+00 1.607943235300214879e-01 3.077443366874689445e+00 1.395503959263461491e+00 2.649378501229663563e+00 -3.077443366874689445e+00 1.368214777352243505e+00 -1.607943235300214879e-01 -9.164404019552980785e-01 -1.368214777352243505e+00 2.649378501229663563e+00 -9.164404019552980785e-01 -1.395503959263461491e+00 -1.607943235300214879e-01 -3.077443366874689445e+00 -1.395503959263461491e+00 -2.649378501229663563e+00 3.077443366874689445e+00 -1.368214777352243505e+00 1.607943235300214879e-01 9.164404019552980785e-01 2.156542001033443068e+00 -2.222723337215002370e+00 -1.203004916624746512e+00 6.071767355822618173e-01 5.874494854279739275e-01 -2.790878852205240346e+00 6.071767355822618173e-01 2.222723337215002370e+00 2.790878852205240346e+00 2.156542001033443068e+00 -5.874494854279739275e-01 1.203004916624746512e+00 -2.156542001033443068e+00 2.222723337215002370e+00 1.203004916624746512e+00 -6.071767355822618173e-01 -5.874494854279739275e-01 2.790878852205240346e+00 -6.071767355822618173e-01 -2.222723337215002370e+00 -2.790878852205240346e+00 -2.156542001033443068e+00 5.874494854279739275e-01 -1.203004916624746512e+00 -2.356390262065714836e-01 -1.405086411321488260e+00 0.000000000000000000e+00 -2.528079712525842293e+00 1.405086411321488260e+00 -3.993883768829987080e+00 2.356390262065714836e-01 1.405086411321488260e+00 0.000000000000000000e+00 2.528079712525842293e+00 -1.405086411321488260e+00 -3.993883768829987080e+00
