-8.075149766300957310e+01 2.610230399349110826e+02 2.922126632869618845e+01 8.074733350401800180e+01 2.610302071426197585e+02 -2.923538955368401560e+01 8.074815934241519244e+01 -2.610261550837344089e+02 2.922831706542291741e+01 -8.075334371521751109e+01 -2.610232507653860807e+02 -2.921500970295127075e+01 8.075158816584763599e+01 -2.610288172041467760e+02 -2.921556511269772827e+01 -8.074686762009032748e+01 -2.610257750746586680e+02 2.922912135797400879e+01 -8.074834189075332347e+01 2.610221220510138096e+02 -2.923372784958655402e+01 8.075279864130654062e+01 2.610287364715014178e+02 2.922108069503405403e+01 1.525233793252687633e+02 2.009500055761305362e+02 3.472593530830780928e+00 -1.525250572273173475e+02 2.009497824043594676e+02 -3.465084736614978400e+00 -1.525259509428430817e+02 -2.009498842200522404e+02 3.466452656158844015e+00 1.525244962125655945e+02 -2.009460594467033445e+02 -3.474642643639370476e+00 -1.525246700191522962e+02 -2.009521869002157644e+02 -3.470494744305399060e+00 1.525256269838205299e+02 -2.009484690847664012e+02 3.463485973127608197e+00 1.525267875798743660e+02 2.009484464590568962e+02 -3.468781546149964701e+00 -1.525254089542561360e+02 2.009483071052551111e+02 3.476668981614453813e+00 2.285748758894247601e+01 3.861735304452813475e-03 1.426538622877232196e-03 -2.285650794714266709e+01 2.352119580819977789e-03 -2.775224051086337598e-03 -2.285590353216629111e+01 -3.881953551055371959e-03 2.004532097870478490e-03 2.285580763001119919e+01 -2.302135763251870852e-03 -7.680422203794423728e-04
