4.851555935270155828e+00 0.000000000000000000e+00 0.000000000000000000e+00 0.000000000000000000e+00 6.616710660636436536e+00 0.000000000000000000e+00 0.000000000000000000e+00 0.000000000000000000e+00 8.384827720028049214e+00
