-2.425777967635077914e+00 -3.308355330318218268e+00 -4.192413860014024607e+00 0.000000000000000000e+00 -3.308355330318218268e+00 0.000000000000000000e+00 -2.425777967635077914e+00 0.000000000000000000e+00 -4.192413860014024607e+00 0.000000000000000000e+00 0.000000000000000000e+00 0.000000000000000000e+00 -2.379107453420414298e-01 -1.654177665159109134e+00 -2.660575012573271003e+00 2.187867222822213353e+00 1.654177665159109134e+00 -1.531838847440753382e+00 2.379107453420414298e-01 1.654177665159109134e+00 2.660575012573271003e+00 -2.187867222822213353e+00 -1.654177665159109134e+00 1.531838847440753382e+00 9.141033913480439699e-01 2.880028786542516261e+00 3.096732368338416475e+00 -1.511674576287033611e+00 -2.880028786542516261e+00 1.095681491675607688e+00 -9.141033913480439699e-01 -4.283265448340563553e-01 -3.096732368338416475e+00 1.511674576287033611e+00 4.283265448340563553e-01 -1.095681491675607688e+00 -9.141033913480439699e-01 -2.880028786542516261e+00 -3.096732368338416475e+00 1.511674576287033611e+00 2.880028786542516261e+00 -1.095681491675607688e+00 9.141033913480439699e-01 4.283265448340563553e-01 3.096732368338416475e+00 -1.511674576287033611e+00 -4.283265448340563553e-01 1.095681491675607688e+00 1.277522381405990393e+00 -1.654177665159109134e+00 1.107443391826411494e+00 -1.148255586229087077e+00 1.654177665159109134e+00 3.084970468187612891e+00 -1.277522381405990393e+00 1.654177665159109134e+00 -1.107443391826411494e+00 1.148255586229087077e+00 -1.654177665159109134e+00 -3.084970468187612891e+00 -2.096936739465335542e+00 -1.654177665159109134e+00 3.053902749321327104e+00 3.288412265822102665e-01 1.654177665159109134e+00 1.138511110692697725e+00 2.096936739465335542e+00 1.654177665159109134e+00 -3.053902749321327104e+00 -3.288412265822102665e-01 -1.654177665159109134e+00 -1.138511110692697725e+00
