2.337542057296176523e+01 -3.051482709531465503e+02 -2.680060332304781667e+01 -1.694659944896308801e+01 -3.040614377976401670e+02 -2.462510659213557673e+01 2.366774000902879749e+01 3.044769147298534904e+02 -4.041467209668891059e+01 -1.745585850728641475e+01 3.049859875374498301e+02 -1.172073052976430851e+01 3.099042429151265310e+02 -6.554162309645240603e-01 -2.969161867974099778e+02 3.314447956311742018e+02 -2.253939330455365375e-01 3.058732629635002240e+02 -3.307866831612557803e+02 -3.832776016072350966e+00 3.015702119403141523e+02 -3.118085172442739577e+02 5.015830061210595936e+00 -2.958482317111675002e+02 -4.573786375700399844e+02 1.496534541123207873e+02 -6.380445711555514521e+01 -4.634206054955072318e+02 -3.339002764670157148e+02 7.034971543717634290e+01 4.610631762571607055e+02 3.369870937882299700e+02 6.928080955691368104e+01 4.598204483635708471e+02 -1.509469993494750213e+02 -5.950137678179084588e+01 4.610980075085133194e+02 -3.376596574016579098e+02 7.080161101995280148e+01 4.594662403100543884e+02 1.502947027153425665e+02 -6.324904942598119817e+01 -4.570376881822977566e+02 -1.524811983178693708e+02 -6.766604352227054164e+01 -4.636416494214690260e+02 3.376372250391179364e+02 7.176479981518185980e+01 5.892471120968887135e+02 4.819172582617404110e+00 2.006492795576942285e+02 5.709829863184153282e+02 -3.546837004376716784e+00 -1.888750942979675074e+02 -5.727897417826825404e+02 -8.862051939950050805e-01 -1.860674638339545766e+02 -5.859145353473944624e+02 -7.091786242964698284e-01 1.969320158670882677e+02 1.725838172604075567e+02 3.528162355667971539e+00 -5.002019050445206858e+02 1.525888694414517488e+02 -4.774201778955293740e+00 5.217916856480394472e+02 -1.487789406148766318e+02 7.498316301149987595e-01 5.210373753461440174e+02 -1.706679667955206128e+02 7.318602913020262335e-01 -4.962026170270522130e+02
