4.146585526038370162e+00 0.000000000000000000e+00 0.000000000000000000e+00 0.000000000000000000e+00 4.315715854340608892e+00 0.000000000000000000e+00 0.000000000000000000e+00 0.000000000000000000e+00 4.868477434935750026e+00
