0.000000000000000000e+00 1.070880151752001241e+00 0.000000000000000000e+00 -2.073292763019185081e+00 -1.086977775418303427e+00 -2.434238717467875013e+00 0.000000000000000000e+00 -1.503163829791372141e-02 0.000000000000000000e+00 -2.073292763019185081e+00 2.142826288660719669e+00 -2.434238717467875013e+00 0.000000000000000000e+00 -1.175393846799822173e+00 0.000000000000000000e+00 -2.073292763019185081e+00 9.824640803704824954e-01 -2.434238717467875013e+00
