-1.490915461592481428e+01 -2.075199536890362140e+01 -3.344082946080164098e-01 -1.484589554896594699e+01 -2.036174060063524038e+01 -6.420674428756415475e-01 8.194748546873336181e+01 -5.125183072051758160e+01 -1.443353119447260934e-02 8.237946168538771019e+01 -5.091050039810250638e+01 -9.218007109617261108e-01 1.323958813582392509e+02 7.669289583383431363e+01 1.478593849862211082e-02 1.327591124418649144e+02 7.499785686716602129e+01 -1.042761117016959727e+00
