2.838045644683386382e+00 0.000000000000000000e+00 0.000000000000000000e+00 0.000000000000000000e+00 7.828932351991320537e+00 0.000000000000000000e+00 0.000000000000000000e+00 0.000000000000000000e+00 8.145068638594896271e+00
