7.095114111708465954e-01 2.402816772668538159e-01 -2.573299879008589475e+00 7.095114111708465954e-01 -3.674184500316338475e+00 -1.499234440288858439e+00 -7.095114111708465954e-01 -2.402816772668538159e-01 2.573299879008589475e+00 -7.095114111708465954e-01 3.674184500316338475e+00 1.499234440288858439e+00 7.095114111708465954e-01 1.537966830667526041e+00 1.554394311656327743e-01 7.095114111708465954e-01 -2.376499345328134005e+00 3.917094890248523864e+00 -7.095114111708465954e-01 -1.537966830667526041e+00 -1.554394311656327743e-01 -7.095114111708465954e-01 2.376499345328134005e+00 -3.917094890248523864e+00 7.095114111708465954e-01 -4.526097599422151951e-01 1.014190794200760193e+00 7.095114111708465954e-01 3.461856414995090780e+00 3.058343525096688165e+00 -7.095114111708465954e-01 4.526097599422151951e-01 -1.014190794200760193e+00 -7.095114111708465954e-01 -3.461856414995090780e+00 -3.058343525096688165e+00 7.095114111708465954e-01 9.487232545751294044e-01 3.642200368231930163e+00 7.095114111708465954e-01 -2.965742921420531086e+00 4.303339500071636237e-01 -7.095114111708465954e-01 -9.487232545751294044e-01 -3.642200368231930163e+00 -7.095114111708465954e-01 2.965742921420531086e+00 -4.303339500071636237e-01 7.095114111708465954e-01 -1.620190502080417039e+00 -1.551406778212224946e+00 7.095114111708465954e-01 2.294275673915243008e+00 -2.521127541085223189e+00 -7.095114111708465954e-01 1.620190502080417039e+00 1.551406778212224946e+00 -7.095114111708465954e-01 -2.294275673915243008e+00 2.521127541085223189e+00
