-1.705753592522666502e-08 1.614293774379146384e+01 1.607967389458035825e+02 -1.649708373087284040e-06 1.613792244674569076e+01 -1.607836988238144897e+02 -8.731849466348594354e-08 -1.613745908249929428e+01 -1.607857505642907086e+02 1.591064225817752747e-06 -1.614579341686430070e+01 1.608043617530264839e+02 -5.639568344819537321e-07 9.535665129189037259e+01 8.189979818639177722e+01 -1.731320083770884637e-06 9.534688829823586786e+01 -8.190690008807524691e+01 1.004415995275152480e-06 -9.534796816164440258e+01 -8.189657196590361821e+01 -1.275080272208368716e-06 -9.535375725795550750e+01 8.188482613734277038e+01 -4.404418485258772541e-06 -2.402271687386994259e+01 1.751673992070795904e+01 -6.146835055154117180e-07 -2.402634773460390605e+01 -1.752680213937075848e+01 4.284670786380151289e-06 2.402684899691373843e+01 -1.752244324501116779e+01 1.251559690173961620e-06 2.402404232907082005e+01 1.751093694043876070e+01 3.740310685687076820e-06 8.160694900018976128e+00 7.446625348088153906e+00 -1.967980084176337320e-05 8.152315159968742009e+00 -7.437726348004617627e+00 -2.439362604344061577e-06 -8.154247909781753734e+00 -7.444018454975816823e+00 1.961388906463040139e-05 -8.160753778285775084e+00 7.453469625215586092e+00 1.443342032849600195e-05 -4.703335814761061329e+01 5.202660289134273341e+01 -3.085822653886462829e-06 -4.704953378156153576e+01 -5.203080973064997750e+01 -1.503204764838009870e-05 4.705101823379380477e+01 -5.202791878203913711e+01 3.833366793916541041e-06 4.703233294585938040e+01 5.202724772406381959e+01
