5.039369923349519276e+00 0.000000000000000000e+00 0.000000000000000000e+00 0.000000000000000000e+00 5.210891603466776267e+00 0.000000000000000000e+00 0.000000000000000000e+00 0.000000000000000000e+00 7.194703939813533289e+00
