1.259379059186907845e+00 2.434685353617224379e+00 -2.830019381091181785e+00 1.259379059186907845e+00 1.707604486453406234e-01 2.830019381091181785e+00 1.260305902487852014e+00 -2.434685353617224379e+00 7.673325888155848595e-01 1.260305902487852014e+00 -1.707604486453406234e-01 -7.673325888155848595e-01 -1.260305902487852014e+00 1.707604486453406234e-01 7.673325888155848595e-01 -1.260305902487852014e+00 2.434685353617224379e+00 -7.673325888155848595e-01 -1.259379059186907845e+00 -2.434685353617224379e+00 2.830019381091181785e+00 -1.259379059186907845e+00 -1.707604486453406234e-01 -2.830019381091181785e+00 2.537033999484171187e-01 1.302722900866694067e+00 0.000000000000000000e+00 5.422762675473572491e-01 2.052083038784521474e+00 2.508296036205580837e+00 5.422762675473572491e-01 5.533627629488664379e-01 -2.508296036205580837e+00 1.977408694127402500e+00 -2.052083038784521474e+00 -1.089055933701186252e+00 1.977408694127402500e+00 -5.533627629488664379e-01 1.089055933701186252e+00 2.265981563313874680e+00 -1.302722900866694067e+00 -3.597351969906766644e+00 -2.265981563313874680e+00 1.302722900866694067e+00 -3.597351969906766644e+00 -1.977408694127402500e+00 2.052083038784521474e+00 1.089055933701186252e+00 -1.977408694127402500e+00 5.533627629488664379e-01 -1.089055933701186252e+00 -5.422762675473572491e-01 -2.052083038784521474e+00 -2.508296036205580837e+00 -5.422762675473572491e-01 -5.533627629488664379e-01 2.508296036205580837e+00 -2.537033999484171187e-01 -1.302722900866694067e+00 0.000000000000000000e+00
