-6.028968684021432267e+00 1.119008631929695241e+02 -6.840189690163140313e+02 -6.029266212101518363e+00 -1.118995632431139171e+02 6.840181771164811835e+02 6.019135807777780123e+00 -1.119150212306967518e+02 -6.840182439651682671e+02 6.019360419366755366e+00 1.119141557973079131e+02 6.840190821448617271e+02 -6.018971411429347995e+00 -1.118985132045042974e+02 -6.840192312688561742e+02 -6.019340776137132920e+00 1.118992788790829849e+02 6.840177863087715195e+02 6.029309715170261263e+00 -1.119161304046835284e+02 6.840195089480183697e+02 6.029004936578719054e+00 1.119148530805374264e+02 -6.840180794145537675e+02 1.125794005079293498e+02 8.610620554827931681e-04 -3.004845326959929207e-06 5.371051463691707113e+02 5.079597029068151528e+02 2.481874265919154610e+01 5.371049561075225256e+02 -5.079578712527859352e+02 -2.481849063964081736e+01 -5.371081751289214026e+02 -5.079645710339049742e+02 2.481850226102798018e+01 -5.371085093723573891e+02 5.079632561716499595e+02 -2.481886987738548811e+01 -1.125810239025868498e+02 -1.586470954818654244e-03 1.118603456894399264e-04 1.125851032151677771e+02 1.572608228880409496e-03 2.270112377876310828e-04 5.371112295997055526e+02 5.079591285223259547e+02 -2.481855908241209363e+01 5.371113941503201659e+02 -5.079578152027328883e+02 2.481854931221934990e+01 -5.371085402255976078e+02 -5.079650734275002719e+02 -2.481898223460203923e+01 -5.371081699867146426e+02 5.079632633707393552e+02 2.481872116476750989e+01 -1.125828858956355845e+02 -8.458401620364990655e-04 -5.689639708456835532e-06
