3.240897671622243958e+00 0.000000000000000000e+00 0.000000000000000000e+00 0.000000000000000000e+00 4.788003868977531496e+00 0.000000000000000000e+00 0.000000000000000000e+00 0.000000000000000000e+00 4.866581392989918875e+00
