-1.620448835811121979e+00 -2.394001934488765748e+00 -2.433290696494959438e+00 0.000000000000000000e+00 0.000000000000000000e+00 0.000000000000000000e+00 0.000000000000000000e+00 1.397402869349773979e+00 1.562377023964094169e+00 -1.620448835811121979e+00 -9.965990651389914357e-01 8.709136725308653793e-01 -1.620448835811121979e+00 9.965990651389914357e-01 -8.709136725308653793e-01 0.000000000000000000e+00 -1.397402869349773979e+00 -1.562377023964094169e+00
