-7.088176465278234046e-06 -1.028163934836916552e-03 1.171771179731678162e-03 2.124035711623324221e-05 8.823470117291298343e-04 -2.124509473411682371e-03 2.219424036851649099e-05 5.560546820218682740e+01 3.717078092939312484e+01 1.393883491696645303e-05 5.560134826617293413e+01 -3.716792695324850371e+01 -2.772981246777704139e-05 -5.560072554494067276e+01 3.716810641626258871e+01 -1.075119995384725129e-05 -5.560537512824542006e+01 -3.716943253995032848e+01
