4.178793367788589563e+00 0.000000000000000000e+00 0.000000000000000000e+00 0.000000000000000000e+00 6.311360593117948170e+00 0.000000000000000000e+00 0.000000000000000000e+00 0.000000000000000000e+00 6.465673430344216044e+00
