-2.089396683894294782e+00 -3.155680296558974085e+00 -3.232836715172108022e+00 0.000000000000000000e+00 0.000000000000000000e+00 0.000000000000000000e+00 -2.089396683894294782e+00 -1.376548201856381271e+00 1.133695899706610666e+00 -2.089396683894294782e+00 1.376548201856381271e+00 -1.133695899706610666e+00 0.000000000000000000e+00 -1.779132094702592592e+00 -2.099140815465497134e+00 0.000000000000000000e+00 1.779132094702592592e+00 2.099140815465497134e+00
