2.117271658062734474e+01 -1.905975875062461284e+02 -2.833156254695035159e+02 2.655889286832933127e+00 1.777647684383752562e+02 2.142514524531828215e+02 3.591787820281356147e+01 -7.290643449600935355e+01 1.073324686472588319e+01 2.187910928074275674e+01 1.070259622742628665e+02 1.561892672286620325e+02 2.114698338417987955e+01 -3.543572973242630724e+02 -2.757775854672733544e+02 3.764442614392502406e+01 3.234370674967395871e+02 9.880098002020974945e+01
