5.338217461303295330e+00 0.000000000000000000e+00 0.000000000000000000e+00 0.000000000000000000e+00 6.269325401388376129e+00 0.000000000000000000e+00 0.000000000000000000e+00 0.000000000000000000e+00 2.470405069342510807e+00
