1.246756701016238367e+00 0.000000000000000000e+00 6.176012673356277016e-01 -1.246756701016238367e+00 0.000000000000000000e+00 -6.176012673356277016e-01 -1.422352029635409298e+00 -3.134662700694188064e+00 6.176012673356277016e-01 1.422352029635409298e+00 -3.134662700694188064e+00 -6.176012673356277016e-01 2.343194540387284697e+00 0.000000000000000000e+00 6.176012673356277016e-01 -2.343194540387284697e+00 0.000000000000000000e+00 -6.176012673356277016e-01 -3.259141907935401705e-01 -3.134662700694188064e+00 6.176012673356277016e-01 3.259141907935401705e-01 -3.134662700694188064e+00 -6.176012673356277016e-01
