4.919880237863073802e+01 1.297043187271410843e-06 3.636569915241720513e-07 -4.919880201867626823e+01 2.168424319784239517e-06 -3.664600171420785762e-07 4.919883086645589287e+01 -1.518064307546466624e-06 3.261287052040556734e-07 -4.919883132925449587e+01 -5.510251924855817615e-07 -3.399862904782549763e-07 7.893247392197999091e+01 -1.234004900957521565e-05 -1.570928614476980452e-06 -7.893249603346883703e+01 -1.692202761990047169e-05 1.570891333478352405e-06 7.893254128488784716e+01 -2.350684735455816127e-05 -1.842179205818964152e-06 -7.893251763073699578e+01 -2.765536519315267409e-05 1.814040757610777303e-06
