7.587587326457789771e+00 0.000000000000000000e+00 0.000000000000000000e+00 0.000000000000000000e+00 1.641887074640669297e+01 0.000000000000000000e+00 0.000000000000000000e+00 0.000000000000000000e+00 4.625343790430154201e+00
