0.000000000000000000e+00 -5.997585918570150554e+00 2.260925767200728576e+00 -3.793793663228894886e+00 -5.997585918570150554e+00 5.174612616222848405e-02 0.000000000000000000e+00 -2.211849454633195933e+00 -5.174612616222848405e-02 -3.793793663228894886e+00 -2.211849454633195933e+00 -2.260925767200728576e+00 -3.793793663228894886e+00 2.211849454633195933e+00 2.260925767200728576e+00 0.000000000000000000e+00 2.211849454633195933e+00 5.174612616222848405e-02 -3.793793663228894886e+00 5.997585918570150554e+00 -5.174612616222848405e-02 0.000000000000000000e+00 5.997585918570150554e+00 -2.260925767200728576e+00
