-3.329651173263275155e+02 1.047900845180637589e+04 -1.043639261940780614e+02 3.293814466233154121e+02 1.051165411104220948e+04 3.157962656356705722e+01 2.557530941281220009e+02 -2.179594030932211899e+04 -4.880519494301125150e+01 -2.437712830166155413e+02 -2.572994636713512227e+04 1.165202710003200650e+02 -2.690117737862101954e+00 -6.917110520479924162e+03 -2.141301148868344129e+01 2.571891525388452848e+01 -5.940368873831004748e+03 -1.875590452216000870e+02 5.555591069926578029e+02 2.307993436031609963e+04 -1.918883832054739358e+01 -5.562339187788583104e+02 1.802033247292810120e+04 -2.528289823977750927e+00
