5.304268626529971442e+00 0.000000000000000000e+00 0.000000000000000000e+00 0.000000000000000000e+00 8.870669550561860461e+00 0.000000000000000000e+00 0.000000000000000000e+00 0.000000000000000000e+00 9.567157249106605477e+00
