9.078627039589426406e-01 -2.999297566797853865e+00 -1.226528695759265375e+00 9.824195024822556244e-01 3.087782494718025017e+00 5.208073390854771612e-01 8.754271043372514605e-01 1.582882275745281231e-01 -1.308193947628824905e+00 9.298648128570914384e-01 3.013428540403106037e+00 -3.412174469693490586e+00 1.669714810782730652e+00 -1.347552280562905658e+00 -4.262771282821939955e+00 1.776707208927734705e+00 -4.277046547177225655e+00 3.475384676924478278e+00 1.722269500407894505e+00 -1.421906234877824415e+00 1.371404154859811930e+00 1.744271609306043525e+00 1.436037208483076810e+00 3.557049928794037363e+00 -1.722269500407894505e+00 1.421906234877824415e+00 -3.412174469693490586e+00 -1.776707208927734705e+00 4.277046547177225655e+00 -1.308193947628824905e+00 -1.744271609306043525e+00 -1.436037208483076810e+00 -1.226528695759265375e+00 -1.669714810782730652e+00 1.347552280562905658e+00 5.208073390854771612e-01 -9.824195024822556244e-01 -3.087782494718025017e+00 -4.262771282821939955e+00 -9.298648128570914384e-01 -3.013428540403106037e+00 1.371404154859811930e+00 -8.754271043372514605e-01 -1.582882275745281231e-01 3.475384676924478278e+00 -9.078627039589426406e-01 2.999297566797853865e+00 3.557049928794037363e+00 -1.709565775949312694e-01 -4.265026789555205866e+00 -5.102164959308103098e-02 1.474798846486178316e-01 -1.599124470625538974e+00 -3.839300204542740041e-02 1.709565775949312694e-01 4.265026789555205866e+00 4.732556977182766467e+00 1.734283669918569026e-01 1.419857107256719209e+00 -7.191632119023315395e-02 -1.734283669918569026e-01 -1.419857107256719209e+00 4.711662303892246939e+00 -1.474798846486178316e-01 1.599124470625538974e+00 4.745185621978698087e+00 8.648450841542182355e-01 -2.937309324998201632e+00 2.243182656414303366e+00 8.804979820009013469e-01 1.008595126205516675e-02 2.603854920409634399e+00 9.590807237005869457e-01 2.988989845621971231e+00 2.533364102610453195e+00 1.771636331264084596e+00 -4.425248821690495937e+00 -2.179723704143668339e+00 1.693053589564398997e+00 -1.446344929658959222e+00 -2.250214521942849544e+00 1.787289229110767819e+00 1.498025450282729043e+00 -2.540395968138999816e+00 -2.504654429145545258e+00 -2.836210304655391923e+00 -3.839300204542740041e-02 2.478705944156420315e+00 -3.015477668024211244e+00 4.711662303892246939e+00 -2.478705944156420315e+00 3.015477668024211244e+00 -7.191632119023315395e-02 2.504654429145545258e+00 2.836210304655391923e+00 4.745185621978698087e+00 -2.481177736199232431e+00 1.703079846673698494e-01 4.732556977182766467e+00 2.481177736199232431e+00 -1.703079846673698494e-01 -5.102164959308103098e-02 -1.771636331264084596e+00 4.425248821690495937e+00 2.603854920409634399e+00 -1.787289229110767819e+00 -1.498025450282729043e+00 2.243182656414303366e+00 -1.693053589564398997e+00 1.446344929658959222e+00 2.533364102610453195e+00 -9.590807237005869457e-01 -2.988989845621971231e+00 -2.250214521942849544e+00 -8.804979820009013469e-01 -1.008595126205516675e-02 -2.179723704143668339e+00 -8.648450841542182355e-01 2.937309324998201632e+00 -2.540395968138999816e+00
