4.259701577867606375e+02 -7.662538791573939534e+01 -3.171810032807928792e+02 4.195779315367490767e+02 4.505339212981565566e+01 2.522960219831405766e+02 -1.586597159997871813e+02 -3.828769861666266365e+02 -4.216590792646838395e+02 3.970721110313006079e+02 -5.196152569435836313e+02 5.157549715151651526e+02 -4.195714405292225138e+02 4.475863533919142156e+01 2.524074417754125363e+02 1.586637212645914872e+02 -3.830144183257482950e+02 -4.212336758166427444e+02 -3.970694129154412053e+02 -5.199269723719741023e+02 5.158797265920911741e+02 -4.259660008268584761e+02 -7.621451274430849310e+01 -3.167587905720136519e+02 3.970686081600915145e+02 5.199720798092106406e+02 5.157934455057492187e+02 -1.586632785205939911e+02 3.829162016634179508e+02 -4.216655090799507093e+02 4.259672066743314076e+02 7.632277367900019271e+01 -3.171803939292980772e+02 4.195716811844963559e+02 -4.473027519502546312e+01 2.522599766567843176e+02 -4.195773057301927906e+02 -4.513545809789757612e+01 2.523757714385228894e+02 -3.970732685420304051e+02 5.195605284375976680e+02 5.159116185580899128e+02 1.586596090418876770e+02 3.829587997037813238e+02 -4.212411577274019123e+02 -4.259712443350379658e+02 7.664016970314023069e+01 -3.167555427542573625e+02 7.726187432112952536e+01 1.281296876158484963e+02 5.859461033543707487e+01 1.633503073745870324e+02 -1.522560848495193966e+02 -2.254798999430486717e+01 -7.726348897403562432e+01 -1.281638565509772434e+02 5.868173937166507415e+01 2.075024568164939183e+02 -6.960969687038254960e+01 3.072124941361455512e+02 -2.075006472739536036e+02 6.961000334590229954e+01 3.073280282080040706e+02 -1.633499777591370901e+02 1.522925585216943603e+02 -2.243812016597858872e+01 2.941183316683477074e+02 3.006833746302752353e+00 -4.148692262246019595e+02 1.867613732616452751e+02 5.595182256339908378e+01 -1.624544614326175918e+02 1.844714005193266360e+02 -2.742829979455867573e+01 2.160133071969231935e+02 -1.867561477511893031e+02 5.591511954880498081e+01 -1.626077974086435916e+02 -1.844694007151381356e+02 -2.755611247901497762e+01 2.158636653821957623e+02 -2.941156284102816016e+02 3.174030895320542278e+00 -4.150003550667417471e+02 1.633506519024364252e+02 1.521198863057868778e+02 -2.254072210218889083e+01 -2.075017101680800238e+02 -6.977501367381589148e+01 3.073179736512292948e+02 2.075024830417481212e+02 6.973740768772398724e+01 3.072218786633864056e+02 -1.633498276067012398e+02 -1.521161196393737782e+02 -2.244620160661773056e+01 -7.726514784991941553e+01 1.281866473253247136e+02 5.869931646263200520e+01 7.726334550646849664e+01 -1.281478858853856480e+02 5.857689183378569453e+01 1.867572101310950359e+02 -5.595201796725395837e+01 -1.624376500162293837e+02 2.941145624308312563e+02 -3.172633932593194039e+00 -4.148802999667462359e+02 1.844675757459777117e+02 2.759498236809347205e+01 2.160036203079279744e+02 -1.844725107217547020e+02 2.742768190700072850e+01 2.158548177013351790e+02 -1.867593708863534516e+02 -5.591600349413797488e+01 -1.625906188386964573e+02 -2.941183563509398482e+02 -3.038977844980767173e+00 -4.150107670068827588e+02
