3.616130881581813394e+00 0.000000000000000000e+00 0.000000000000000000e+00 0.000000000000000000e+00 3.670261476815668722e+00 0.000000000000000000e+00 0.000000000000000000e+00 0.000000000000000000e+00 6.748695500471137620e+01
