-1.808065440790906697e+00 0.000000000000000000e+00 -1.132194899132089461e+01 -1.808065440790906697e+00 0.000000000000000000e+00 -1.668716195176703110e+01 -1.808065440790906697e+00 0.000000000000000000e+00 -2.201242256198479197e+01 -1.808065440790906697e+00 0.000000000000000000e+00 -2.726952139031006439e+01 -1.808065440790906697e+00 0.000000000000000000e+00 -3.242343267342808133e+01 -1.808065440790906697e+00 0.000000000000000000e+00 2.988801527328010366e+01 -1.808065440790906697e+00 0.000000000000000000e+00 2.468315131574918553e+01 -1.808065440790906697e+00 0.000000000000000000e+00 1.946917667293532261e+01 -1.808065440790906697e+00 0.000000000000000000e+00 1.415694101891011059e+01 -1.808065440790906697e+00 0.000000000000000000e+00 8.812514086381369793e+00 -1.808065440790906697e+00 0.000000000000000000e+00 3.436098312091048435e+00 0.000000000000000000e+00 -1.835130738407834361e+00 -3.808828767849209207e+00 0.000000000000000000e+00 -1.835130738407834361e+00 -1.402500401669525409e+01 0.000000000000000000e+00 -1.835130738407834361e+00 -8.645281387556595476e+00 0.000000000000000000e+00 -1.835130738407834361e+00 -2.466175795114710212e+01 0.000000000000000000e+00 -1.835130738407834361e+00 -1.937003833882640080e+01 0.000000000000000000e+00 -1.835130738407834361e+00 3.247769217623045535e+01 0.000000000000000000e+00 -1.835130738407834361e+00 -2.987802715926414976e+01 0.000000000000000000e+00 -1.835130738407834361e+00 2.208260902880303078e+01 0.000000000000000000e+00 -1.835130738407834361e+00 2.725480925841673852e+01 0.000000000000000000e+00 -1.835130738407834361e+00 1.147480696164186753e+01 0.000000000000000000e+00 -1.835130738407834361e+00 1.680263212337569811e+01 0.000000000000000000e+00 -1.835130738407834361e+00 7.175213073119252050e-01 0.000000000000000000e+00 -1.835130738407834361e+00 6.112630949207767728e+00 0.000000000000000000e+00 0.000000000000000000e+00 -4.531141647801220529e+00 0.000000000000000000e+00 0.000000000000000000e+00 -9.596779954347258723e+00 0.000000000000000000e+00 0.000000000000000000e+00 -1.236408254362222614e+01 0.000000000000000000e+00 0.000000000000000000e+00 -1.506814988500059904e+01 0.000000000000000000e+00 0.000000000000000000e+00 -1.776067692976868173e+01 0.000000000000000000e+00 0.000000000000000000e+00 -2.043228300643064088e+01 0.000000000000000000e+00 0.000000000000000000e+00 -2.310226943040390779e+01 0.000000000000000000e+00 0.000000000000000000e+00 -2.574364133755828732e+01 0.000000000000000000e+00 0.000000000000000000e+00 -2.838420344482717539e+01 0.000000000000000000e+00 0.000000000000000000e+00 -3.099709588118683357e+01 0.000000000000000000e+00 0.000000000000000000e+00 3.152295419822695521e+01 0.000000000000000000e+00 0.000000000000000000e+00 2.621800716651290131e+01 0.000000000000000000e+00 0.000000000000000000e+00 2.885688204516329591e+01 0.000000000000000000e+00 0.000000000000000000e+00 2.116600117930295610e+01 0.000000000000000000e+00 0.000000000000000000e+00 1.848737646654271316e+01 0.000000000000000000e+00 0.000000000000000000e+00 1.583405933637644125e+01 0.000000000000000000e+00 0.000000000000000000e+00 1.316832458670230288e+01 0.000000000000000000e+00 0.000000000000000000e+00 1.050744895384742250e+01 0.000000000000000000e+00 0.000000000000000000e+00 7.829971497279913706e+00 0.000000000000000000e+00 0.000000000000000000e+00 5.158567867943435914e+00 0.000000000000000000e+00 0.000000000000000000e+00 2.482372665966873893e+00 0.000000000000000000e+00 0.000000000000000000e+00 -2.029332736811750859e-01 -1.808065440790906697e+00 -1.835130738407834361e+00 -8.930548756588387871e-01 -1.808065440790906697e+00 -1.835130738407834361e+00 -2.232400982961456393e+00 -1.808065440790906697e+00 -1.835130738407834361e+00 -4.751621528132587535e+00 -1.808065440790906697e+00 -1.835130738407834361e+00 -1.039062900992749761e+01 -1.808065440790906697e+00 -1.835130738407834361e+00 -7.731103096466152458e+00 -1.808065440790906697e+00 -1.835130738407834361e+00 -1.303638763740516815e+01 -1.808065440790906697e+00 -1.835130738407834361e+00 -2.363379666414877178e+01 -1.808065440790906697e+00 -1.835130738407834361e+00 -1.570326959035431535e+01 -1.808065440790906697e+00 -1.835130738407834361e+00 -2.101199595278925258e+01 -1.808065440790906697e+00 -1.835130738407834361e+00 -1.835834141923345442e+01 -1.808065440790906697e+00 -1.835130738407834361e+00 3.092704440747503725e+01 -1.808065440790906697e+00 -1.835130738407834361e+00 3.355107221404337992e+01 -1.808065440790906697e+00 -1.835130738407834361e+00 -2.624776888660680285e+01 -1.808065440790906697e+00 -1.835130738407834361e+00 -3.139857575161842718e+01 -1.808065440790906697e+00 -1.835130738407834361e+00 2.053493068504756280e+01 -1.808065440790906697e+00 -1.835130738407834361e+00 -2.882286865077027116e+01 -1.808065440790906697e+00 -1.835130738407834361e+00 2.318197150890668823e+01 -1.808065440790906697e+00 -1.835130738407834361e+00 2.572960406536172684e+01 -1.808065440790906697e+00 -1.835130738407834361e+00 1.523889187541565349e+01 -1.808065440790906697e+00 -1.835130738407834361e+00 9.892170377583729746e+00 -1.808065440790906697e+00 -1.835130738407834361e+00 2.833169858781993966e+01 -1.808065440790906697e+00 -1.835130738407834361e+00 1.257632901394227254e+01 -1.808065440790906697e+00 -1.835130738407834361e+00 4.498140527078030360e+00 -1.808065440790906697e+00 -1.835130738407834361e+00 1.790010496457777833e+01 -1.808065440790906697e+00 -1.835130738407834361e+00 1.764176488374636920e+00 -1.808065440790906697e+00 -1.835130738407834361e+00 7.206796962020369790e+00
