8.027591707613925109e+01 -2.255251045679920097e+01 -1.070208303519689478e+06 -3.836790053481318807e+01 6.548248720509766940e+01 -2.969670401364212390e+06 -7.323856705613122742e+00 -2.306995822219358416e+01 -1.878855707195282914e+06 -6.566291335449908217e+01 -1.594637133882126356e+01 -7.896287876179896994e+05 -7.777549952432390512e+01 -1.287226421561372263e+02 -4.505925152009243611e+05 -8.372689004974515115e+01 -1.517336016810510273e+02 -8.932116511797775747e+05 6.725034187562415333e+00 -8.389128434129519363e+00 -1.178490825195143771e+04 4.629034306270227717e+00 -5.633654704261995327e+00 1.008329296854723478e+06 2.440541918030316282e+01 6.291787948695495203e+01 2.111952400036284234e+06 1.829305233670814914e+02 -1.389401775729855082e+01 1.561576945936998120e+06 -1.430206867453959418e+01 5.871593967425472727e+01 4.079388860403937870e+05 -1.798027139166585542e+01 1.506451939818508912e+01 1.647730947782401228e+06 2.233421108082328743e+01 -7.137602533395831017e+01 -2.901677496043695137e+06 -1.390835191560551607e+02 -3.362006524077238989e+00 1.310130010781796183e+06 1.044592673344176426e+01 2.613819999016456563e+00 -1.321445220668551745e+06 1.243383514660650313e+01 4.988570364706621518e+00 -2.431722539875434246e+06 1.385447495905033861e+02 1.809353991009326705e+02 -7.518043760117781349e+05 3.721577508381589183e+01 6.915816535584096414e+01 -4.335064119006014662e+05 -7.744542024734028196e+00 5.149103692056961279e+00 4.828719361906482955e+05 2.182012354182386105e+01 7.025379219903749117e+01 -5.238251918592723086e+05 -1.884440256807969831e+02 -2.144937974562089664e+02 2.325701889811085071e+06 -7.624944478291260097e+00 3.089795425086603320e+00 1.565681681587868603e+06 -5.680041316839036902e+00 -7.454546763254565889e+00 8.879295713078213157e+05 2.681237455410979464e+02 -7.792373031753085399e+01 5.338626970766356681e+05 -1.003986651868332203e+01 -1.501777283113853656e+01 8.829879569419559557e+05 -4.403329525286572732e+01 -1.826503101254213490e+01 3.015438889841794153e+05 -1.023603095735521151e+01 -5.390605218916927299e+01 -1.005685349000852206e+06 2.853128780950084931e+01 1.037045975922733874e+02 -1.553175222953090677e+06 1.552551406430806580e+01 2.549626701085211522e+01 -1.392278876378042158e+06 4.271345580451227697e+00 -6.665856181534738134e+00 -1.112030508303879993e+06 1.423015105708282269e+00 -7.186067728768101404e+00 -8.299930893831433496e+05 1.248540412652523912e+01 2.237269818403449406e+00 -5.506561003147511510e+05 6.555009179667868580e+01 -4.587968880047152531e+00 -3.017042368732714676e+05 6.365583654307976902e-01 -5.278587953647606668e+01 -1.977164445878890692e+05 3.270073293815416804e+01 -1.037464649250636342e+02 -4.303319245830135769e+05 -1.326068187911385143e+00 -1.654220284091859838e+01 -1.576267330613611266e+05 2.130097226619147932e+01 -9.186020269904769009e+01 -4.019333691613920964e+05 -4.842751667537521065e+00 -2.375903227865117096e+00 3.334329146691256319e+05 -6.004132134157523559e+00 -2.925188852959269337e+00 6.104733186315944185e+05 1.768253674913742024e-01 5.318578278145558613e+00 8.902592891942219576e+05 -3.505568044469958977e+01 6.096595901311960120e+01 1.144060599116986617e+06 -6.700230239289031431e+01 9.639876010455988364e+01 1.088427455558300950e+06 -3.750239685200709516e+01 -2.565041314154482066e+01 5.712031396141754230e+05 1.065454611097942994e+01 4.520608389018533302e+01 1.853332729300221836e+05 7.209917026366274406e+00 1.785429894872390122e+01 2.778919636776127154e+05 -2.300086424186186473e+00 1.330627119254092383e+00 5.323480549487905810e+05 4.256277654958164014e+00 2.940573584665364226e+00 5.925139354492163984e+05 6.558819349149716871e+00 2.998752922728414649e+00 7.052218145059485687e+05 1.192786668919931614e+01 1.377165046405702498e+01 8.985060774900382385e+05 1.015492879307644358e+02 7.787020251681110494e+01 -7.236242759292619303e+04 5.987444850639226956e+01 1.115289716048074098e+02 8.746661232814532705e+05 5.497990898604973609e+01 -1.668488313620567709e+01 -1.237319012042729650e+06 -2.585884390294046042e+00 7.832838496150792196e+00 -7.740831356951965718e+05 -1.838702729556973026e+01 -5.494003785790324912e+01 -1.551307090109564830e+06 -5.179296621537539558e+00 8.863658056793012108e+00 -1.051173736336880131e+06 -1.083575043052187148e+01 -5.083784590242457213e+00 -1.330028998338724487e+06 -7.722372891755402691e+01 5.385138796076720524e+01 -4.500609889477405231e+05 -1.198239629462978684e+02 5.954576533852968367e+01 -3.073769732741062762e+05 -2.006582449950884239e+01 -2.662160377605319983e+00 -4.985035323852440342e+05 4.562705737857012167e+01 7.993042506299181582e+01 -2.001054027524407720e+05 1.105463195571911683e+01 2.111640679465687231e+00 3.972148849147497094e+05 -5.857414898072801179e+01 1.247488522848476400e+01 -2.709769004753112677e+05 1.996162940481648329e+00 6.154993217517332749e-01 1.373975690397420258e+05 7.978846313398174628e-01 7.197341451331142892e+00 -1.087896707835212437e+05 7.821548472792488660e+00 -1.125834237704571628e+01 9.525496981068069581e+05 1.582267473372382938e+02 -2.460071479172978570e+01 9.973959112426055362e+05 -1.467879301140936477e+01 4.847292986822255756e+01 -3.631543423611944309e+05 6.198217321547311798e+01 -8.596021572875541494e+01 1.174058654389978386e+06 -9.356699829291090964e+01 -5.385936095226688991e+01 1.691920362282095302e+05 6.924850312905434180e+00 5.464989655775330135e+00 6.721226383495652117e+05 -2.837540674968716647e+00 -1.322550661413249173e+01 3.452519841943178326e+05 -1.975836198459772106e+02 2.701456951569767639e+01 4.425668947582516703e+05
