4.171147815448828844e+00 0.000000000000000000e+00 0.000000000000000000e+00 0.000000000000000000e+00 6.298828618414860969e+00 0.000000000000000000e+00 0.000000000000000000e+00 0.000000000000000000e+00 7.948845495460775012e+00
