-1.885621594577208571e+00 3.126064549998640363e+00 -3.161001490918587287e+00 1.999523126180288157e-01 2.334975767417610260e-02 3.161001490918587287e+00 1.885621594577208571e+00 -2.334975767417610260e-02 -8.134212568118001085e-01 -1.999523126180288157e-01 -3.126064549998640363e+00 8.134212568118001085e-01 -2.533972296562220783e-01 -1.998618323110168404e-01 -3.762061393037904988e+00 1.832176675422306333e+00 -2.949552474779705058e+00 3.762061393037904988e+00 2.533972296562220783e-01 2.949552474779705058e+00 -2.123613562800138466e-01 -1.832176675422306333e+00 1.998618323110168404e-01 2.123613562800138466e-01
