-3.101955257851655290e+01 7.292065012645173283e+01 -6.859306254974106309e+01 -3.101955838921013253e+01 -7.292052671349075865e+01 6.859025181955483674e+01 3.101955725792465302e+01 7.292452632186770245e+01 6.859087659766976230e+01 3.101954933892632482e+01 -7.292464819216665717e+01 -6.858807872300032216e+01 2.908816976973779234e+01 -1.155816562967245744e+02 -1.251206456568616119e+02 2.908819234402523790e+01 1.155818007927330626e+02 1.251162567834369241e+02 -2.908820396541239361e+01 -1.155878547126895768e+02 1.251196470403190659e+02 -2.908815897110370585e+01 1.155873096387786063e+02 -1.251151517232155470e+02
