6.650111267819506011e+00 0.000000000000000000e+00 0.000000000000000000e+00 0.000000000000000000e+00 8.588971058474269782e+00 0.000000000000000000e+00 0.000000000000000000e+00 0.000000000000000000e+00 9.185545337049619619e+00
