0.000000000000000000e+00 -1.135488344629908442e+00 -1.572964060747084725e+00 0.000000000000000000e+00 1.135488344629908442e+00 1.572964060747084725e+00 0.000000000000000000e+00 3.158997184607225783e+00 -3.019808607777725751e+00 0.000000000000000000e+00 -3.158997184607225783e+00 3.019808607777725751e+00 -3.325055633909753006e+00 1.333001949893513949e+00 -1.427307123325364913e+00 -3.325055633909753006e+00 -1.333001949893513949e+00 1.427307123325364913e+00 -3.325055633909753006e+00 -2.961483579343620054e+00 -3.165465545199445785e+00 -3.325055633909753006e+00 2.961483579343620054e+00 3.165465545199445785e+00 1.668108689155309632e+00 -4.294485529237134891e+00 0.000000000000000000e+00 -1.668108689155309632e+00 0.000000000000000000e+00 -4.592772668524809809e+00 -1.668108689155309632e+00 -4.294485529237134891e+00 0.000000000000000000e+00 1.668108689155309632e+00 0.000000000000000000e+00 -4.592772668524809809e+00 0.000000000000000000e+00 -3.450024335362607886e+00 -1.188955356933355967e+00 0.000000000000000000e+00 3.450024335362607886e+00 1.188955356933355967e+00 0.000000000000000000e+00 8.444611938745261170e-01 -3.403817311591454509e+00 0.000000000000000000e+00 -8.444611938745261170e-01 3.403817311591454509e+00 -3.325055633909753006e+00 -3.087736472176012992e+00 -8.377667899449963151e-01 -3.325055633909753006e+00 3.087736472176012992e+00 8.377667899449963151e-01 -3.325055633909753006e+00 1.206749057061121233e+00 -3.755005878579813938e+00 -3.325055633909753006e+00 -1.206749057061121233e+00 3.755005878579813938e+00 1.667859176808706545e+00 -1.474514440194303777e+00 -3.018726091124946276e+00 1.667859176808706545e+00 1.474514440194303777e+00 3.018726091124946276e+00 -1.667859176808706545e+00 2.819971089042830670e+00 -1.574046577399863756e+00 -1.667859176808706545e+00 -2.819971089042830670e+00 1.574046577399863756e+00 1.667859176808706545e+00 2.819971089042830670e+00 -1.574046577399863756e+00 1.667859176808706545e+00 -2.819971089042830670e+00 1.574046577399863756e+00 -1.667859176808706545e+00 -1.474514440194303777e+00 -3.018726091124946276e+00 -1.667859176808706545e+00 1.474514440194303777e+00 3.018726091124946276e+00
