-2.938990000972193858e-02 -8.945934546817527462e+02 -8.999599695878430339e+02 -1.343206242411851097e-02 8.945631979374869616e+02 8.999458285193981055e+02 -1.249753392366091329e-02 -8.945188001247760212e+02 8.999162608308308791e+02 1.268464391334049937e-02 8.945646017599181050e+02 -8.998807178980699746e+02 1.892501673694194086e-02 7.354020581625804880e+02 -1.011044042610540714e+03 -5.544293487524416288e-03 -7.353870840566487459e+02 1.010997695901487532e+03 2.289359585590881180e-02 7.353934655351724814e+02 1.011028271462569478e+03 6.645613319188671889e-03 -7.353896345911756498e+02 -1.010960569169060818e+03 -8.108045491048967790e+01 4.246908898865292721e-03 -4.964746366765449698e-02 8.108587273947649976e+01 -2.621067893090550660e-02 3.182662433806612845e-02 8.107953394126840863e+01 -1.602577143267991215e-03 -6.776882492149492732e-02 -8.108433727655368273e+01 -2.897071806615398801e-02 1.507637928089069351e-02 2.605866059392621809e-02 -1.236026101868103808e+02 3.798047233472767630e+02 3.257815147200328332e-02 1.235969100506753335e+02 -3.798244066861110468e+02 -5.003817059015865099e-02 -1.236132067321721451e+02 -3.798364960140799553e+02 -4.120103104762144058e-02 1.236111483068272037e+02 3.798363134657417959e+02 -2.731312809400682218e-02 -4.318035763201235113e+02 6.613992656015808791e+01 -3.085586909419966301e-02 4.317974997744574353e+02 -6.620991970675464700e+01 4.883999863213594333e-02 -4.318035243838357360e+02 -6.617954366329321658e+01 4.165304346133429092e-02 4.317896085440443699e+02 6.623303135480064441e+01 -4.111595992251770326e+01 1.598182736828884458e+02 -1.510125768831720166e+02 -4.115893941177461812e+01 -1.598450938904117891e+02 1.510120590629566095e+02 4.112242933277617141e+01 1.598605626766286889e+02 1.509970556464466824e+02 4.115309436825454981e+01 -1.598467939039491910e+02 -1.510127059525603670e+02 -4.112255984198240810e+01 1.598911084129114784e+02 1.510304697056307646e+02 -4.115339477597039064e+01 -1.598756488826665816e+02 -1.510393698369997821e+02 4.111638240622077234e+01 1.598539549410097891e+02 -1.510450751153415467e+02 4.115921364565831908e+01 -1.598798089278928103e+02 1.510510030512337494e+02
