3.585090933935542790e+00 0.000000000000000000e+00 0.000000000000000000e+00 0.000000000000000000e+00 5.564205764183182801e+00 0.000000000000000000e+00 0.000000000000000000e+00 0.000000000000000000e+00 6.696060254199192485e+00
