-9.100554343997074858e-01 -1.391051441045795700e+00 -2.577846130385581080e+00 8.824900325680639090e-01 1.391051441045795700e+00 -7.701839967140149401e-01 9.100554343997074858e-01 1.391051441045795700e+00 2.577846130385581080e+00 -8.824900325680639090e-01 -1.391051441045795700e+00 7.701839967140149401e-01 2.956244830793429146e-01 -1.391051441045795700e+00 -9.163838329114774028e-01 -1.496920983359251167e+00 1.391051441045795700e+00 -2.431646294188118951e+00 -2.956244830793429146e-01 1.391051441045795700e+00 9.163838329114774028e-01 1.496920983359251167e+00 -1.391051441045795700e+00 2.431646294188118951e+00
