-2.116944531440842070e+01 -2.350270942082079151e-02 -1.602601090524627239e+02 -2.119148105854506170e+01 2.252845300267351455e-02 1.604277156805428035e+02 2.116902031102406312e+01 -2.521441844461490625e-02 1.602623762513999566e+02 2.118936519475120051e+01 2.531125205902921838e-02 -1.604281815644704920e+02 -1.320327742017952346e+02 -1.150552377974630933e-02 1.879712563383335677e+01 -1.320142756273863540e+02 1.187035712355989300e-02 -1.876269182363712318e+01 1.320322599811245254e+02 -1.242920860038779912e-02 -1.879844805513227257e+01 1.320153066398312092e+02 1.210368089624908917e-02 1.876322666455675048e+01
