5.163494788238695676e+00 0.000000000000000000e+00 0.000000000000000000e+00 0.000000000000000000e+00 7.166737453406834213e+00 0.000000000000000000e+00 0.000000000000000000e+00 0.000000000000000000e+00 9.512411220776741061e+00
