1.290873697059673919e+00 -2.989489859876561351e+00 2.409503275982312953e+00 1.290873697059673919e+00 -5.938788668268559778e-01 -2.346702334406057577e+00 -1.290873697059673919e+00 2.989489859876561351e+00 -2.409503275982312953e+00 -1.290873697059673919e+00 5.938788668268559778e-01 2.346702334406057577e+00 1.290873697059673919e+00 2.104842123107306673e+00 -4.549225056576511328e+00 1.290873697059673919e+00 1.478526603596110656e+00 2.069805559285679553e-01 -1.290873697059673919e+00 -2.104842123107306673e+00 4.549225056576511328e+00 -1.290873697059673919e+00 -1.478526603596110656e+00 -2.069805559285679553e-01 1.290873697059673919e+00 2.174746480262762738e+00 -3.274381216749541412e+00 1.290873697059673919e+00 1.408622246440654591e+00 1.481824393638829118e+00 -1.290873697059673919e+00 -2.174746480262762738e+00 3.274381216749541412e+00 -1.290873697059673919e+00 -1.408622246440654591e+00 -1.481824393638829118e+00 -2.391787581867172552e+00 -1.510382754172117981e+00 4.099754110201030977e-01 -1.899598096062893871e-01 -2.072985972531299570e+00 -4.346230196722381756e+00 1.899598096062893871e-01 1.510382754172117981e+00 -4.099754110201030977e-01 2.391787581867172552e+00 2.072985972531299570e+00 4.346230196722381756e+00 2.391787581867172552e+00 1.510382754172117981e+00 -4.099754110201030977e-01 1.899598096062893871e-01 2.072985972531299570e+00 4.346230196722381756e+00 -1.899598096062893871e-01 -1.510382754172117981e+00 4.099754110201030977e-01 -2.391787581867172552e+00 -2.072985972531299570e+00 -4.346230196722381756e+00
