-1.360164664205410856e-04 -2.859883172304272421e+02 7.034425904163921359e+02 -4.278055193469407925e-07 2.859791954699490475e+02 7.034507408140232201e+02 5.736379847745003862e-05 2.859928819673212956e+02 -7.034423281638501066e+02 1.753249898449351881e-04 -2.859835246937760189e+02 -7.034531525089689694e+02 -1.397728741312651772e-04 4.815961336235168915e+02 -8.016344210305091167e+01 -1.101022910364562234e-05 -4.815949241764993758e+02 -8.015652994879495452e+01 1.137953575591803067e-04 -4.815945431389823739e+02 8.016152765949378534e+01 -3.912609757364832332e-05 4.815947647680914088e+02 8.015843667904202619e+01 -1.053825258661230958e-04 3.029058229994375324e+02 -2.476504187463816038e+02 -6.575324135751970983e-05 -3.029027746993014603e+02 -2.476523465596762037e+02 1.395135783580490245e-04 -3.029061695841696178e+02 2.476503575541217685e+02 -4.044825764846670584e-05 3.029042530837297704e+02 2.476509381092590445e+02 2.684219863310325422e+02 6.327915447514914149e+02 -1.178991789256983367e+02 -2.684235079099972268e+02 -6.327906294386974650e+02 -1.178952775334695104e+02 2.684234564879301388e+02 -6.327930719868834331e+02 1.179024087457312078e+02 -2.684240432137154926e+02 6.327936376296212302e+02 1.178920240592857880e+02 -2.684234523741647536e+02 -6.327930771290901930e+02 1.179023948617730895e+02 2.684239799645729363e+02 6.327936324874145839e+02 1.178920184028583975e+02 -2.684219986723286411e+02 6.327915704625249873e+02 -1.178990987072737084e+02 2.684235541898576116e+02 -6.327905985854572464e+02 -1.178952333104918040e+02
