0.000000000000000000e+00 0.000000000000000000e+00 -1.393294967207012958e+00 0.000000000000000000e+00 0.000000000000000000e+00 1.393294967207012958e+00 0.000000000000000000e+00 0.000000000000000000e+00 -1.381630245159176651e+00 0.000000000000000000e+00 0.000000000000000000e+00 1.381630245159176651e+00
