2.575205970029650793e+00 0.000000000000000000e+00 0.000000000000000000e+00 0.000000000000000000e+00 4.926879548614134130e+00 0.000000000000000000e+00 0.000000000000000000e+00 0.000000000000000000e+00 1.072047728349623341e+01
