3.163063848823318835e+01 -3.055126513199712956e-01 4.334170588599724994e+01 1.695690196294532104e+00 1.222497573085973954e+01 7.419607731249340254e-01 -3.169788230259161566e+01 -3.140101720721738543e-01 -3.354646679020920175e+01 -1.776066512385528151e+00 1.139014464257588521e+01 1.151797820439141695e+01 3.163463177169588292e+01 3.351116081033334027e-01 -4.354259878942477968e+01 1.696909007270505532e+00 -1.218694592409101674e+01 -8.145714829127506107e-01 -3.169826483134857398e+01 2.654292652219140125e-01 3.374397848703841163e+01 -1.777340041583074237e+00 -1.142647335594375946e+01 -1.149585432283181419e+01 6.864811501474952227e-01 -9.750562986850128122e-02 7.835577698241708688e+00 -7.073216500414989394e-01 5.907739412546301333e-02 -7.603044899788230282e+00 6.502893994552682022e-01 5.359888452839074550e-03 -9.090157658383001049e+00 -6.810301590696171692e-01 1.649934038828634320e-01 9.017562092393939466e+00 1.081977457130153297e+01 -3.406186183810809176e+00 1.727107408059021338e+02 -1.035000323819258305e+01 -3.737147452088867894e+00 -1.057797932159444514e+02 1.081231832015386551e+01 3.587805443439084918e+00 -1.736128237303868502e+02 -1.035239693541483597e+01 3.449477856436920842e+00 1.065250594046830486e+02
