4.588326257012155907e+00 0.000000000000000000e+00 0.000000000000000000e+00 0.000000000000000000e+00 8.153522244535349017e+00 0.000000000000000000e+00 0.000000000000000000e+00 0.000000000000000000e+00 8.410392800252726175e+00
