8.754667820445074522e-01 2.238523520954731172e+00 2.479506589276164075e+00 -1.418696346461570279e+00 1.838237601312943115e+00 -2.479506589276164075e+00 -8.754667820445074522e-01 -1.838237601312943115e+00 1.725689810850199679e+00 1.418696346461570279e+00 -2.238523520954731172e+00 -1.725689810850199679e+00 -1.216943280308859121e+00 -3.728275179713192777e+00 4.155433369000772537e+00 1.077219848197218832e+00 -3.484859436128361354e-01 -4.155433369000772537e+00 1.216943280308859121e+00 3.484859436128361354e-01 4.976303266020470906e-02 -1.077219848197218832e+00 3.728275179713192777e+00 -4.976303266020470906e-02 8.356635539540999691e-01 -3.747314139653106668e+00 3.180615856990295143e+00 1.458499574551977984e+00 3.747314139653106668e+00 -1.024580543136068611e+00 -8.356635539540999691e-01 3.294469799686819411e-01 1.024580543136068611e+00 -1.458499574551977984e+00 -3.294469799686819411e-01 -3.180615856990295143e+00 -7.321927613530673229e-01 1.147280481966529875e+00 -2.749946555742831311e+00 7.321927613530673229e-01 -2.929480640301144856e+00 -1.455249844383532443e+00 -1.561970367153010741e+00 -1.147280481966529875e+00 1.455249844383532443e+00 -1.491346895210658718e-01 1.043100729489274014e+00 2.306105398709138221e+00 1.491346895210658718e-01 -3.033660392778400716e+00 1.899091001417225311e+00 -2.145028438455834685e+00 -1.043100729489274014e+00 -1.899091001417225311e+00 -2.044666281503566552e+00 1.139193087822948591e+00 3.058541950675372489e-01 2.145028438455834685e+00 3.033660392778400716e+00 -2.306105398709138221e+00 2.044666281503566552e+00 -2.937568034444725917e+00 3.899342206646358111e+00 -2.494968475316883816e-01 -1.139193087822948591e+00 -3.899342206646358111e+00 -1.946752410542412326e+00 -3.915370793853756748e+00 1.038726402496256834e-01 2.494968475316883816e-01 2.937568034444725917e+00 -3.058541950675372489e-01 -3.474107200803743800e-01 3.915370793853756748e+00 -4.101323760935092544e+00 1.946752410542412326e+00 1.613903300014497832e-01 4.101323760935092544e+00 3.474107200803743800e-01 -1.613903300014497832e-01 -1.038726402496256834e-01 1.561970367153010741e+00 2.929480640301144856e+00 2.749946555742831311e+00
