1.586701603358304125e+00 4.024051681694498228e+01 -3.708432382531556470e+01 1.586467586673260932e+00 -4.024320305430681799e+01 3.708429580028900574e+01 -1.585694070229313635e+00 4.024335870890384825e+01 3.709046603696124578e+01 -1.585424562033576956e+00 -4.024004121424662372e+01 -3.709142233314261006e+01 1.828826216547201966e+01 3.115299423096707443e+01 8.457867653620503745e+00 1.828789182374495681e+01 -3.115252937548073930e+01 -8.458937129771488372e+00 -1.828829199027092400e+01 3.116358923366681921e+01 -8.458704393495915852e+00 -1.828882518568440219e+01 -3.116441368366820086e+01 8.461067186055858613e+00 2.984412568062368365e+01 1.091019909354204884e+02 4.089497230371934933e+01 -2.984139182642774202e+01 -1.091706147123709059e+02 4.087420560477600873e+01 -2.984340587452879490e+01 1.091754237040835847e+02 -4.087388668511601963e+01 2.984472109673831852e+01 -1.091103089689902390e+02 -4.088954660715626233e+01 -1.366192739431017174e+02 -1.606752954499970087e+02 1.488944299495368000e+02 1.366220358223242215e+02 -1.606915031713177768e+02 -1.489319726864861764e+02 1.366223525822573777e+02 1.607124664054014715e+02 1.489215499477111280e+02 -1.314306176826037813e+02 -1.029955505364777366e+02 -1.173454074862986545e+02 1.314369955615828474e+02 -1.030506569946566202e+02 1.173876352877790765e+02 1.314421002301812109e+02 1.030512303507045004e+02 -1.173793419368015378e+02 1.539530542005855978e+02 1.586007400310610365e+02 -1.190112819134057389e+02 -1.314378388834828684e+02 1.029950594557371915e+02 1.173362209340160405e+02 -1.539535077432171875e+02 1.585618901451666147e+02 1.190244665314032915e+02 -1.539493872929826352e+02 -1.585595987778578149e+02 -1.190195804065900234e+02 -2.522205734694482260e+02 -1.650372802758142257e+02 1.136948068492255537e+01 1.539513516159448159e+02 -1.586181083484356407e+02 1.190296154229793046e+02 2.522259100515690307e+02 1.649703359435744403e+02 1.134431205134948861e+01 2.522180651010163785e+02 -1.649696777411159019e+02 -1.135777547979470370e+01 -2.522245329686128628e+02 1.650389046989130861e+02 -1.136103754146362022e+01 -1.366230174695846245e+02 1.606532765208763180e+02 -1.488954218812106660e+02
