5.865309184586044999e+00 0.000000000000000000e+00 0.000000000000000000e+00 0.000000000000000000e+00 6.279711562502196642e+00 0.000000000000000000e+00 0.000000000000000000e+00 0.000000000000000000e+00 6.550097833357297006e+00
