0.000000000000000000e+00 -2.034110291547526206e+00 -3.001131816720794543e+00 0.000000000000000000e+00 -2.034110291547526206e+00 -2.739171004870311621e-01 0.000000000000000000e+00 2.034110291547526206e+00 2.739171004870311621e-01 0.000000000000000000e+00 2.034110291547526206e+00 3.001131816720794543e+00 -2.932654592293022500e+00 1.105745489703572115e+00 -3.001131816720794543e+00 -2.932654592293022500e+00 1.105745489703572115e+00 -2.739171004870311621e-01 -2.932654592293022500e+00 -1.105745489703572115e+00 2.739171004870311621e-01 -2.932654592293022500e+00 -1.105745489703572115e+00 3.001131816720794543e+00 0.000000000000000000e+00 -2.176946476306630185e+00 1.637524458339324251e+00 0.000000000000000000e+00 2.176946476306630185e+00 -1.637524458339324251e+00 -2.932654592293022500e+00 9.629093049444681363e-01 1.637524458339324251e+00 -2.932654592293022500e+00 -9.629093049444681363e-01 -1.637524458339324251e+00 0.000000000000000000e+00 2.845984435282667313e+00 1.637524458339324251e+00 0.000000000000000000e+00 -2.845984435282667313e+00 -1.637524458339324251e+00 0.000000000000000000e+00 -1.456871544988035394e+00 2.722624146794555333e+00 0.000000000000000000e+00 -1.456871544988035394e+00 5.524247698840932808e-01 0.000000000000000000e+00 1.456871544988035394e+00 -5.524247698840932808e-01 0.000000000000000000e+00 1.456871544988035394e+00 -2.722624146794555333e+00 -2.932654592293022500e+00 -2.938713480851398163e-01 1.637524458339324251e+00 -2.932654592293022500e+00 2.938713480851398163e-01 -1.637524458339324251e+00 -2.932654592293022500e+00 1.682984236263062927e+00 2.722624146794555333e+00 -2.932654592293022500e+00 1.682984236263062927e+00 5.524247698840932808e-01 -2.932654592293022500e+00 -1.682984236263062927e+00 -5.524247698840932808e-01 -2.932654592293022500e+00 -1.682984236263062927e+00 -2.722624146794555333e+00
