-4.923398844224617567e-04 -7.096061422199090529e+00 -1.654253245636853364e+01 -4.909846291052751173e-04 -7.096089807180113951e+00 1.654292131003974120e+01 -4.305818846799525893e-04 7.096186943464815045e+00 -1.654314993254994803e+01 -4.291722412708640902e-04 7.096177996025144985e+00 1.654276056465807088e+01 3.694090994281962127e-04 -7.095922119819388030e+00 -1.654253132508305768e+01 3.716995179998363501e-04 -7.095934306849285278e+00 1.654290742608163356e+01 4.380268815940206012e-04 7.095915949171339498e+00 -1.654315378920497892e+01 4.298709905435076258e-04 7.095881393542266657e+00 1.654278108206283449e+01 -2.021683624952517935e-03 -1.165218810252401482e+02 -3.020199380260807972e-03 -1.750082947035693382e-03 1.165224317555784950e+02 3.033612373942637906e-03 1.498855820648402207e-03 -1.165214187408571576e+02 -2.920096443381712051e-03 1.686372697718119609e-03 1.165212567613458816e+02 2.892285420043406389e-03 -2.865550969101343572e-03 7.838363900101931847e+01 -4.561214672746919004e-03 -2.932834800112369637e-03 -7.838226500338711844e+01 4.541760882020089499e-03 -2.806012278410801881e-03 -2.087184951146108460e+02 -5.115401576737524714e+00 -2.810790781979911022e-03 -2.087185341953818352e+02 5.110854888988987987e+00 -2.347134627935982577e-03 2.087183413626302695e+02 -5.112046338283072089e+00 -2.337265195744848111e-03 2.087183814718426049e+02 5.116669835173196290e+00 2.362137653638193748e-03 7.838234573603241984e+01 -4.354302240441332641e-03 2.187488629490644092e-03 -7.838271957446004023e+01 4.367509108767300176e-03 2.425139677110383155e-03 -2.087169215993583862e+02 -5.115317131418977148e+00 2.429272792600071628e-03 -2.087170059315484423e+02 5.110892483662224706e+00 2.832564540969224800e-03 2.087170830646490174e+02 -5.112277192510989998e+00 2.795154154136052227e-03 2.087169478246126175e+02 5.116608236679049071e+00
