4.890883327212728560e+00 0.000000000000000000e+00 0.000000000000000000e+00 0.000000000000000000e+00 5.080319243442795951e+00 0.000000000000000000e+00 0.000000000000000000e+00 0.000000000000000000e+00 5.164866944745964084e+00
