-1.330652551247758053e+00 1.409327195153620593e+00 1.455457334767836119e+00 1.330652551247758053e+00 -1.130832426567777604e+00 1.126976137605145700e+00 -1.330652551247758053e+00 -1.409327195153620593e+00 -1.455457334767836119e+00 1.330652551247758053e+00 1.130832426567777604e+00 -1.126976137605145700e+00 2.075568658950378786e+00 -2.540159621721397976e+00 -2.582433472372982042e+00 -2.075568658950378786e+00 0.000000000000000000e+00 0.000000000000000000e+00 -2.391908255438293551e+00 -2.540159621721397976e+00 0.000000000000000000e+00 2.391908255438293551e+00 0.000000000000000000e+00 -2.582433472372982042e+00 -5.112666301133598212e-01 1.591078156508821895e+00 -1.737209300212567475e+00 5.112666301133598212e-01 -9.490814652125760809e-01 -8.452241721604142333e-01 -5.112666301133598212e-01 -1.591078156508821895e+00 1.737209300212567475e+00 5.112666301133598212e-01 9.490814652125760809e-01 8.452241721604142333e-01
