-1.895091931767834467e+03 1.407332048880062700e+02 2.137512787485140677e+02 1.895092913929315500e+03 1.407393323415187467e+02 -2.137416484237926113e+02 -1.895088260232245375e+03 -1.407314513955191160e+02 -2.137479409421403318e+02 1.895088949287944160e+03 -1.407390484917085018e+02 2.137381923466646185e+02 1.488864651855678574e+02 7.671842174792939785e-04 2.652111801216915695e-03 -1.488836117750659866e+02 -3.229172711312757274e-04 -2.699259861478761884e-03 -3.154369446860251358e+01 -4.164669165334322181e-05 -1.194292893255396960e-03 3.154666594417039605e+01 -1.112977075430148476e-03 1.207307499614784568e-03 -2.337237042163125693e+02 2.009347337364304664e+01 -2.119628377676555431e+01 2.337213686260260772e+02 2.009570982218419388e+01 2.119430258736536032e+01 -2.337254217133528016e+02 -2.009237546108897021e+01 2.119913775291017544e+01 2.337229930491249661e+02 -2.009539007977113201e+01 -2.119716114007395547e+01
