4.486154837884834379e+00 0.000000000000000000e+00 0.000000000000000000e+00 0.000000000000000000e+00 5.466676816725070331e+00 0.000000000000000000e+00 0.000000000000000000e+00 0.000000000000000000e+00 7.060907303044941408e+00
