-2.243077418942417189e+00 -5.904557623288785723e-02 -3.530453651522470704e+00 0.000000000000000000e+00 2.674292831071292564e+00 0.000000000000000000e+00 -2.243077418942417189e+00 -3.389339626369542824e-04 0.000000000000000000e+00 0.000000000000000000e+00 2.732999475650872867e+00 -3.530453651522470704e+00 -2.243077418942417189e+00 -1.300588014786827618e+00 0.000000000000000000e+00 -6.069722615080589412e-01 -2.029383500781570149e+00 2.586092605782234433e+00 0.000000000000000000e+00 1.432750393575707548e+00 -3.530453651522470704e+00 -1.636105157434358359e+00 7.039549075809647949e-01 -9.443610457402364933e-01 6.069722615080589412e-01 -2.029383500781570149e+00 -2.586092605782234433e+00 1.636105157434358359e+00 7.039549075809647949e-01 9.443610457402364933e-01
