1.549312896068609513e-04 -6.610288775946598605e+01 4.497092434970162921e-04 -3.121892117760983283e-04 -6.610402830091366866e+01 -3.082293089482425106e-04 -2.476019087109668557e-05 -2.158754873154158815e+01 -1.573045522138799123e-04 -2.140808756865085591e-04 -2.158799255540249362e+01 1.577144020292933887e-04 6.539427264903375277e-04 1.834556172338951683e+02 -2.570803640137453872e-04 5.545968149982786599e+01 -4.895490052110186840e-01 -1.105415141650231874e+02 3.600486397716269171e-04 1.834555735251381634e+02 2.213822147717945082e-04 -5.545875847372388989e+01 -4.894292668709562255e-01 -1.105421795665711358e+02 -5.546030987748748942e+01 -4.900673252489367582e-01 1.105418283538530062e+02 5.545802622348877975e+01 -4.892359692639456914e-01 1.105418062423641601e+02
