2.820389647049382109e+00 0.000000000000000000e+00 0.000000000000000000e+00 0.000000000000000000e+00 9.394391473367063483e+00 0.000000000000000000e+00 0.000000000000000000e+00 0.000000000000000000e+00 7.284027465442997951e+00
