-1.410194823524691055e+00 2.367161187929413213e+00 -1.821006866360749488e+00 0.000000000000000000e+00 2.330034548754118973e+00 1.821006866360749488e+00 0.000000000000000000e+00 0.000000000000000000e+00 0.000000000000000000e+00 0.000000000000000000e+00 0.000000000000000000e+00 -3.642013732721498975e+00 0.000000000000000000e+00 -2.330034548754118973e+00 -1.821006866360749488e+00 -1.410194823524691055e+00 -2.367161187929413213e+00 1.821006866360749488e+00 -1.410194823524691055e+00 -4.697195736683531742e+00 0.000000000000000000e+00 -1.410194823524691055e+00 -4.697195736683531742e+00 -3.642013732721498975e+00 -1.410194823524691055e+00 1.285857335232267085e+00 3.097408852609220720e+00 0.000000000000000000e+00 3.411338401451264879e+00 -3.097408852609220720e+00 0.000000000000000000e+00 3.411338401451264879e+00 -5.446048801122779226e-01 -1.410194823524691055e+00 1.285857335232267085e+00 5.446048801122779226e-01 -1.410194823524691055e+00 3.691676437139718381e+00 1.821006866360749488e+00 0.000000000000000000e+00 1.005519299543813583e+00 -1.821006866360749488e+00 0.000000000000000000e+00 -3.411338401451264879e+00 3.097408852609220720e+00 -1.410194823524691055e+00 -1.285857335232267085e+00 -3.097408852609220720e+00 -1.410194823524691055e+00 -1.285857335232267085e+00 -5.446048801122779226e-01 0.000000000000000000e+00 -3.411338401451264879e+00 5.446048801122779226e-01 0.000000000000000000e+00 -1.005519299543813583e+00 1.821006866360749488e+00 -1.410194823524691055e+00 -3.691676437139718381e+00 -1.821006866360749488e+00
