-5.418485029554355936e-04 1.287971270202926348e+02 -6.727431535751430929e-03 -5.847478920584666361e-04 -1.287882145476274900e+02 8.286587278802498222e-03 -1.624310253113283545e-07 -6.895044591589914729e-02 2.010924637280878807e-02 -9.945513813317022843e-05 -8.606188229756565888e-02 -2.001437636144772977e-02 -5.380188547945794365e-04 1.287999768312497793e+02 -2.929450209942031230e-02 -5.441067441686048148e-04 -1.288097387964629661e+02 2.772838149449452852e-02 4.134235117781237508e-06 6.985449007802208010e-02 3.812789194482654742e-02 -4.973550050905460921e-05 8.568047094212630221e-02 -3.828910228482756278e-02 -1.482436219842461409e-04 2.133858370302249341e+01 -2.748424767202108754e+01 -1.667615264623594092e-04 -2.135436564962790129e+01 2.746330500676422304e+01 -1.935487688411416688e-04 -2.133808999975652654e+01 -2.745498558479866702e+01 -1.694792166457373688e-04 2.136646932435350621e+01 2.750112609136269626e+01 1.310113144343795987e-04 1.410262453642978357e+02 -1.073339660578519900e-02 1.301660765481614729e-04 -1.410319511568602593e+02 -2.147014186800026703e-02 -1.769455547460821812e-04 2.140332953620664824e+01 -2.748913225417236461e+01 -1.492222903643262131e-04 -2.138741168107796398e+01 2.746072228202340781e+01 -2.190737393413015816e-04 -2.140642951552014850e+01 -2.748484560781701447e+01 -1.778241475561072630e-04 2.137786445441690475e+01 2.748756110433501121e+01 1.150398538576568284e-04 1.409709810403730046e+02 2.802275539640733393e-02 1.254387970711669774e-04 -1.409661082852971674e+02 4.579887357132702251e-03
