4.412782830093807007e+00 0.000000000000000000e+00 0.000000000000000000e+00 0.000000000000000000e+00 4.468635897148393710e+00 0.000000000000000000e+00 0.000000000000000000e+00 0.000000000000000000e+00 1.318941018183866021e+01
