1.109276519893665380e+00 -3.380076194084741248e-02 -4.611861921466826608e+00 -1.097114895153238123e+00 -2.200517188167963045e+00 4.611861921466826608e+00 -1.109276519893665380e+00 2.200517188167963045e+00 -1.982843169452503940e+00 1.097114895153238123e+00 3.380076194084741248e-02 1.982843169452503940e+00 1.570315248343759684e+00 -1.477331028232271685e-02 -7.210650536303910840e-01 -6.360761667031440414e-01 -2.219544638503544665e+00 7.210650536303910840e-01 -1.570315248343759684e+00 2.219544638503544665e+00 -5.873640021413621959e+00 6.360761667031440414e-01 1.477331028232271685e-02 5.873640021413621959e+00 1.033994446960724511e+00 -5.174680366781130719e-03 -1.529984769247728860e+00 -1.172396968086178992e+00 -2.229143267508901793e+00 1.529984769247728860e+00 -1.033994446960724511e+00 2.229143267508901793e+00 -5.064720321671601688e+00 1.172396968086178992e+00 5.174680366781130719e-03 5.064720321671601688e+00
