-1.071192480745815345e+01 -5.059932618696796780e+00 4.375320383008247518e+02 -1.004388335345273831e+01 3.468132136864898296e+00 -4.154549693342044634e+02 9.846775268427991890e+00 -3.582136643911705942e+00 -4.396829457191715846e+02 1.068514537763402217e+01 5.280701246338110444e+00 4.153613410629190525e+02 -9.996812313162955377e+00 3.066225662987247080e+00 -2.636064208213008442e+01 -1.005632847070370595e+01 -4.273086397398887293e+00 2.218727895192026978e+01 1.005773152180379348e+01 4.275276936318547882e+00 2.641382442940323827e+01 1.000682748063438154e+01 -3.075657416254489629e+00 -2.206661691726701946e+01 -6.174973313100657002e+00 9.591907500829577771e+00 -3.785149226650468108e+02 -6.896879485209284510e+00 -1.214486431554727019e+01 3.582318477483082688e+02 6.821205794285225998e+00 1.192579653962308761e+01 3.780663993414290189e+02 6.283116285570486959e+00 -9.513954423938368876e+00 -3.574647960866335552e+02
