4.273090630021140868e+00 0.000000000000000000e+00 0.000000000000000000e+00 0.000000000000000000e+00 4.403487832388388590e+00 0.000000000000000000e+00 0.000000000000000000e+00 0.000000000000000000e+00 6.837447408877634913e+00
