1.157964829146790331e+00 1.396169854698280366e-01 -8.324592218985578107e-01 -9.785804858637799919e-01 2.062126933370252324e+00 8.324592218985578107e-01 9.785804858637799919e-01 -1.396169854698280366e-01 2.586264482540259646e+00 -1.157964829146790331e+00 -2.062126933370252324e+00 -2.586264482540259646e+00 1.041258176775897937e+00 1.268887034844304651e+00 -1.098223965918448730e+00 -1.095287138234672497e+00 9.328568813498896439e-01 1.098223965918448730e+00 1.095287138234672497e+00 -1.268887034844304651e+00 2.320499738520368727e+00 -1.041258176775897937e+00 -9.328568813498896439e-01 -2.320499738520368727e+00
