2.434378021698949901e+00 1.375879186196472403e+02 4.239338146200874036e+01 5.399964035124233064e+00 -1.203847015615652793e+02 -2.533315652262862017e+01 -4.310205879314214172e+00 -1.256474765611010582e+02 -7.365090981335639242e+01 -2.623095537186137083e+00 1.142034322848384136e+02 5.295763026894158543e+01 1.104270702409866356e+00 -1.150103453044669237e+02 8.682366216892411614e+01 8.387018792405777745e+00 1.219013131545792987e+02 -7.318580852953488147e+01 -1.114479679652091626e+01 1.929751181448321802e+02 -6.788660819456721640e+01 -7.791183433653415591e+00 -1.705459566285349240e+02 3.593218952972274138e+01
