5.614347421603008037e+00 0.000000000000000000e+00 0.000000000000000000e+00 0.000000000000000000e+00 7.354137624907455262e+00 0.000000000000000000e+00 0.000000000000000000e+00 0.000000000000000000e+00 9.041953100934316367e+00
