1.403586855400752009e+00 -2.532556435309123888e+00 2.883802634987497893e+00 -1.403586855400752009e+00 2.532556435309123888e+00 -2.883802634987497893e+00 -1.403586855400752009e+00 1.144512377144603521e+00 1.637173915479660069e+00 1.403586855400752009e+00 -1.144512377144603521e+00 -1.637173915479660069e+00 1.403586855400752009e+00 1.414627942105813663e+00 3.960672940469980752e+00 -1.403586855400752009e+00 -1.414627942105813663e+00 -3.960672940469980752e+00 -1.403586855400752009e+00 -2.262440870347913968e+00 5.603036099971774320e-01 1.403586855400752009e+00 2.262440870347913968e+00 -5.603036099971774320e-01 -2.712248796771149273e+00 -1.346227765879914884e+00 7.348110455231087190e-01 9.492491614706373426e-02 1.346227765879914884e+00 -7.348110455231087190e-01 2.712248796771149273e+00 2.330841046573812303e+00 3.786165504944049687e+00 -9.492491614706373426e-02 -2.330841046573812303e+00 -3.786165504944049687e+00 2.712248796771149273e+00 1.346227765879914884e+00 -7.348110455231087190e-01 -9.492491614706373426e-02 -1.346227765879914884e+00 7.348110455231087190e-01 -2.712248796771149273e+00 -2.330841046573812303e+00 -3.786165504944049687e+00 9.492491614706373426e-02 2.330841046573812303e+00 3.786165504944049687e+00 1.403586855400752009e+00 2.743507373982007613e-01 2.836364660355972234e+00 -1.403586855400752009e+00 -2.743507373982007613e-01 -2.836364660355972234e+00 -1.403586855400752009e+00 -3.402718072938818228e+00 1.684611890111185950e+00 1.403586855400752009e+00 3.402718072938818228e+00 -1.684611890111185950e+00 1.403586855400752009e+00 7.618157047234659363e-01 -3.620704364418065868e+00 -1.403586855400752009e+00 -7.618157047234659363e-01 3.620704364418065868e+00 -1.403586855400752009e+00 -2.915253107730261917e+00 -9.002721860490920935e-01 1.403586855400752009e+00 2.915253107730261917e+00 9.002721860490920935e-01
