-4.116609602653745092e+00 -8.290775503321468420e+01 1.614702194146874206e+02 6.541830423785969906e+00 5.746834931000240942e+01 -2.057144585796328613e+02 -6.416124809950056296e+00 6.196703661580946942e+01 2.023667704272879675e+01 4.700852524871347526e+00 -4.339917400545061099e+01 2.662512911870553367e+01 -7.924950844898850377e-01 4.656177351815046563e+02 -4.014225947975962328e+01 5.388013238204040434e+00 -4.333182297608233853e+02 -8.193826960587253438e+01 -3.157384158102133132e+00 2.235099591200282134e+02 1.313652988019041743e+02 5.165045509868898321e+00 -2.400600984427789228e+02 -1.643903572476909503e+01 -1.935628122076593058e+02 2.984186876609984438e+02 8.638784729496275361e+01 -1.853268302592385908e+02 -2.834828088939715940e+02 -4.505651123813810699e+01 1.848464134269600549e+02 3.606060776044088811e+02 -3.353981344321681490e+01 1.893603427476682555e+02 -3.838336890965358066e+02 -1.328327694107404078e+01 1.850740280646524809e+02 -2.840132120892105831e+02 -3.747858684086816083e+01 1.939148039700848187e+02 2.982651742788410729e+02 8.952123706810445469e+01 -1.894200653648082948e+02 -3.825682197937828164e+02 -7.927569565086614922e+00 -1.842525615716008929e+02 3.611184033719683271e+02 -2.804542219215109355e+01 1.367399008564831320e+00 -1.296060501285230373e+02 -3.782825165191445080e+02 2.286627135217370321e-01 1.675504684979872252e+02 3.557637638780478255e+02 -7.576279816720813409e-01 -1.980552388768002459e+02 4.955610737755860669e+02 -1.049719165467789539e+00 1.684073195438330970e+02 -4.767669397233489121e+02 -3.658826090353281213e+00 1.158487893071833383e+02 1.403707173674705189e+02 4.017156758973207786e+00 -7.725099855394357462e+01 -1.916943775165998431e+02 -3.249259548822911015e+00 3.459835422884160749e+01 -2.290600456633628994e+02 5.566464934496059058e+00 -5.937606377543702507e+01 2.723178116068878580e+02
